 Entering Gaussian System, Link 0=g16
 Input=cys_opt.com
 Output=cys_opt.log
 Initial command:
 /home/dbeb/faculty/zia/gaussian16/l1.exe "/scratch/physics/btech/ph1221037/gaussian16/Gau-5842.inp" -scrdir="/scratch/physics/btech/ph1221037/gaussian16/"
 Default linda workers: csky140.hpc.iitd.ac.in
 Default is to use  16 SMP processors on each worker.
 Entering Link 1 = /home/dbeb/faculty/zia/gaussian16/l1.exe PID=      5845.
  
 Copyright (c) 1988-2019, Gaussian, Inc.  All Rights Reserved.
  
 This is part of the Gaussian(R) 16 program.  It is based on
 the Gaussian(R) 09 system (copyright 2009, Gaussian, Inc.),
 the Gaussian(R) 03 system (copyright 2003, Gaussian, Inc.),
 the Gaussian(R) 98 system (copyright 1998, Gaussian, Inc.),
 the Gaussian(R) 94 system (copyright 1995, Gaussian, Inc.),
 the Gaussian 92(TM) system (copyright 1992, Gaussian, Inc.),
 the Gaussian 90(TM) system (copyright 1990, Gaussian, Inc.),
 the Gaussian 88(TM) system (copyright 1988, Gaussian, Inc.),
 the Gaussian 86(TM) system (copyright 1986, Carnegie Mellon
 University), and the Gaussian 82(TM) system (copyright 1983,
 Carnegie Mellon University). Gaussian is a federally registered
 trademark of Gaussian, Inc.
  
 This software contains proprietary and confidential information,
 including trade secrets, belonging to Gaussian, Inc.
  
 This software is provided under written license and may be
 used, copied, transmitted, or stored only in accord with that
 written license.
  
 The following legend is applicable only to US Government
 contracts under FAR:
  
                    RESTRICTED RIGHTS LEGEND
  
 Use, reproduction and disclosure by the US Government is
 subject to restrictions as set forth in subparagraphs (a)
 and (c) of the Commercial Computer Software - Restricted
 Rights clause in FAR 52.227-19.
  
 Gaussian, Inc.
 340 Quinnipiac St., Bldg. 40, Wallingford CT 06492
  
  
 ---------------------------------------------------------------
 Warning -- This program may not be used in any manner that
 competes with the business of Gaussian, Inc. or will provide
 assistance to any competitor of Gaussian, Inc.  The licensee
 of this program is prohibited from giving any competitor of
 Gaussian, Inc. access to this program.  By using this program,
 the user acknowledges that Gaussian, Inc. is engaged in the
 business of creating and licensing software in the field of
 computational chemistry and represents and warrants to the
 licensee that it is not a competitor of Gaussian, Inc. and that
 it will not use this program in any manner prohibited above.
 ---------------------------------------------------------------
  

 Cite this work as:
 Gaussian 16, Revision C.01,
 M. J. Frisch, G. W. Trucks, H. B. Schlegel, G. E. Scuseria, 
 M. A. Robb, J. R. Cheeseman, G. Scalmani, V. Barone, 
 G. A. Petersson, H. Nakatsuji, X. Li, M. Caricato, A. V. Marenich, 
 J. Bloino, B. G. Janesko, R. Gomperts, B. Mennucci, H. P. Hratchian, 
 J. V. Ortiz, A. F. Izmaylov, J. L. Sonnenberg, D. Williams-Young, 
 F. Ding, F. Lipparini, F. Egidi, J. Goings, B. Peng, A. Petrone, 
 T. Henderson, D. Ranasinghe, V. G. Zakrzewski, J. Gao, N. Rega, 
 G. Zheng, W. Liang, M. Hada, M. Ehara, K. Toyota, R. Fukuda, 
 J. Hasegawa, M. Ishida, T. Nakajima, Y. Honda, O. Kitao, H. Nakai, 
 T. Vreven, K. Throssell, J. A. Montgomery, Jr., J. E. Peralta, 
 F. Ogliaro, M. J. Bearpark, J. J. Heyd, E. N. Brothers, K. N. Kudin, 
 V. N. Staroverov, T. A. Keith, R. Kobayashi, J. Normand, 
 K. Raghavachari, A. P. Rendell, J. C. Burant, S. S. Iyengar, 
 J. Tomasi, M. Cossi, J. M. Millam, M. Klene, C. Adamo, R. Cammi, 
 J. W. Ochterski, R. L. Martin, K. Morokuma, O. Farkas, 
 J. B. Foresman, and D. J. Fox, Gaussian, Inc., Wallingford CT, 2019.
 
 ******************************************
 Gaussian 16:  ES64L-G16RevC.01  3-Jul-2019
                17-Mar-2026 
 ******************************************
 %chk=cys_opt.chk
 SetLPE:    new flags="-opt 'Tsnet.Node.lindarsharg: ssh'  -nodelist 'csky140.hpc.iitd.ac.in' -env GAUSS_MDEF=8053063680 -env GAUSS_EXEDIR="/home/dbeb/faculty/zia/gaussian16:/home/dbeb/faculty/zia/gaussian16/bsd""
 Will use up to    1 processors via Linda.
 ----------------------------------------------------------------------
 # Opt Freq UWB97XD/aug-cc-pVTZ scrf=(smd, solvent=DiethylEther) Temper
 ature=310.00
 ----------------------------------------------------------------------
 1/18=20,19=15,26=3,38=1,112=310000/1,3;
 2/9=110,12=2,17=6,18=5,40=1/2;
 3/5=16,6=1,7=10,11=2,25=1,30=1,70=32201,71=1,72=8,74=-58,116=2/1,2,3;
 4//1;
 5/5=2,38=5,53=8/2;
 6/7=2,8=2,9=2,10=2,28=1/1;
 7//1,2,3,16;
 1/18=20,19=15,26=3/3(2);
 2/9=110/2;
 99//99;
 2/9=110/2;
 3/5=16,6=1,7=10,11=2,25=1,30=1,70=32205,71=1,72=8,74=-58,116=2/1,2,3;
 4/5=5,16=3,69=1/1;
 5/5=2,38=5,53=8/2;
 7//1,2,3,16;
 1/18=20,19=15,26=3/3(-5);
 2/9=110/2;
 6/7=2,8=2,9=2,10=2,19=2,28=1/1;
 99/9=1/99;
 ------------------------------
 Cysteine Geometry Optimisation
 ------------------------------
 Symbolic Z-matrix:
 Charge = -1 Multiplicity = 2
 S                     2.2268    1.1231    0.0436 
 O                    -1.3649    1.1718    0.9125 
 O                    -1.1766    0.4956   -1.2446 
 N                    -0.4351   -1.9834    0.1592 
 C                     0.1262   -0.6592    0.4341 
 C                     1.4925   -0.5194   -0.2399 
 C                    -0.869     0.3716   -0.0649 
 H                     0.2375   -0.5515    1.5201 
 H                     2.189    -1.2704    0.1485 
 H                     1.4157   -0.6634   -1.3235 
 H                    -1.2936   -2.1083    0.6947 
 H                     0.2095   -2.7023    0.486 
 H                     1.3385    1.8238   -0.6762 
 H                    -1.9919    1.8374    0.5574 
 

 GradGradGradGradGradGradGradGradGradGradGradGradGradGradGradGradGradGrad
 Berny optimization.
 Initialization pass.
                           ----------------------------
                           !    Initial Parameters    !
                           ! (Angstroms and Degrees)  !
 --------------------------                            --------------------------
 ! Name  Definition              Value          Derivative Info.                !
 --------------------------------------------------------------------------------
 ! R1    R(1,6)                  1.8214         estimate D2E/DX2                !
 ! R2    R(1,13)                 1.341          estimate D2E/DX2                !
 ! R3    R(2,7)                  1.357          estimate D2E/DX2                !
 ! R4    R(2,14)                 0.9809         estimate D2E/DX2                !
 ! R5    R(3,7)                  1.2254         estimate D2E/DX2                !
 ! R6    R(4,5)                  1.4643         estimate D2E/DX2                !
 ! R7    R(4,11)                 1.0195         estimate D2E/DX2                !
 ! R8    R(4,12)                 1.0194         estimate D2E/DX2                !
 ! R9    R(5,6)                  1.5299         estimate D2E/DX2                !
 ! R10   R(5,7)                  1.5172         estimate D2E/DX2                !
 ! R11   R(5,8)                  1.097          estimate D2E/DX2                !
 ! R12   R(6,9)                  1.0954         estimate D2E/DX2                !
 ! R13   R(6,10)                 1.0958         estimate D2E/DX2                !
 ! A1    A(6,1,13)              96.9269         estimate D2E/DX2                !
 ! A2    A(7,2,14)             111.8979         estimate D2E/DX2                !
 ! A3    A(5,4,11)             109.5708         estimate D2E/DX2                !
 ! A4    A(5,4,12)             109.5838         estimate D2E/DX2                !
 ! A5    A(11,4,12)            106.1228         estimate D2E/DX2                !
 ! A6    A(4,5,6)              110.0149         estimate D2E/DX2                !
 ! A7    A(4,5,7)              107.5309         estimate D2E/DX2                !
 ! A8    A(4,5,8)              108.2723         estimate D2E/DX2                !
 ! A9    A(6,5,7)              112.2604         estimate D2E/DX2                !
 ! A10   A(6,5,8)              109.6673         estimate D2E/DX2                !
 ! A11   A(7,5,8)              108.9925         estimate D2E/DX2                !
 ! A12   A(1,6,5)              111.955          estimate D2E/DX2                !
 ! A13   A(1,6,9)              107.8618         estimate D2E/DX2                !
 ! A14   A(1,6,10)             107.4982         estimate D2E/DX2                !
 ! A15   A(5,6,9)              110.425          estimate D2E/DX2                !
 ! A16   A(5,6,10)             111.1641         estimate D2E/DX2                !
 ! A17   A(9,6,10)             107.763          estimate D2E/DX2                !
 ! A18   A(2,7,3)              122.8179         estimate D2E/DX2                !
 ! A19   A(2,7,5)              113.7931         estimate D2E/DX2                !
 ! A20   A(3,7,5)              123.3678         estimate D2E/DX2                !
 ! D1    D(13,1,6,5)           -67.4918         estimate D2E/DX2                !
 ! D2    D(13,1,6,9)           170.8246         estimate D2E/DX2                !
 ! D3    D(13,1,6,10)           54.8688         estimate D2E/DX2                !
 ! D4    D(14,2,7,3)             0.5771         estimate D2E/DX2                !
 ! D5    D(14,2,7,5)           178.9526         estimate D2E/DX2                !
 ! D6    D(11,4,5,6)           173.7027         estimate D2E/DX2                !
 ! D7    D(11,4,5,7)           -63.7584         estimate D2E/DX2                !
 ! D8    D(11,4,5,8)            53.869          estimate D2E/DX2                !
 ! D9    D(12,4,5,6)            57.6437         estimate D2E/DX2                !
 ! D10   D(12,4,5,7)          -179.8175         estimate D2E/DX2                !
 ! D11   D(12,4,5,8)           -62.19           estimate D2E/DX2                !
 ! D12   D(4,5,6,1)            178.9682         estimate D2E/DX2                !
 ! D13   D(4,5,6,9)            -60.8326         estimate D2E/DX2                !
 ! D14   D(4,5,6,10)            58.723          estimate D2E/DX2                !
 ! D15   D(7,5,6,1)             59.2655         estimate D2E/DX2                !
 ! D16   D(7,5,6,9)            179.4647         estimate D2E/DX2                !
 ! D17   D(7,5,6,10)           -60.9797         estimate D2E/DX2                !
 ! D18   D(8,5,6,1)            -62.0488         estimate D2E/DX2                !
 ! D19   D(8,5,6,9)             58.1504         estimate D2E/DX2                !
 ! D20   D(8,5,6,10)           177.706          estimate D2E/DX2                !
 ! D21   D(4,5,7,2)            117.7958         estimate D2E/DX2                !
 ! D22   D(4,5,7,3)            -63.8389         estimate D2E/DX2                !
 ! D23   D(6,5,7,2)           -121.0635         estimate D2E/DX2                !
 ! D24   D(6,5,7,3)             57.3018         estimate D2E/DX2                !
 ! D25   D(8,5,7,2)              0.6369         estimate D2E/DX2                !
 ! D26   D(8,5,7,3)            179.0023         estimate D2E/DX2                !
 --------------------------------------------------------------------------------
 Trust Radius=3.00D-01 FncErr=1.00D-07 GrdErr=1.00D-06 EigMax=2.50D+02 EigMin=1.00D-04
 Number of steps in this run=     69 maximum allowed number of steps=    100.
 GradGradGradGradGradGradGradGradGradGradGradGradGradGradGradGradGradGrad

                          Input orientation:                          
 ---------------------------------------------------------------------
 Center     Atomic      Atomic             Coordinates (Angstroms)
 Number     Number       Type             X           Y           Z
 ---------------------------------------------------------------------
      1         16           0        2.226800    1.123100    0.043600
      2          8           0       -1.364900    1.171800    0.912500
      3          8           0       -1.176600    0.495600   -1.244600
      4          7           0       -0.435100   -1.983400    0.159200
      5          6           0        0.126200   -0.659200    0.434100
      6          6           0        1.492500   -0.519400   -0.239900
      7          6           0       -0.869000    0.371600   -0.064900
      8          1           0        0.237500   -0.551500    1.520100
      9          1           0        2.189000   -1.270400    0.148500
     10          1           0        1.415700   -0.663400   -1.323500
     11          1           0       -1.293600   -2.108300    0.694700
     12          1           0        0.209500   -2.702300    0.486000
     13          1           0        1.338500    1.823800   -0.676200
     14          1           0       -1.991900    1.837400    0.557400
 ---------------------------------------------------------------------
                    Distance matrix (angstroms):
                    1          2          3          4          5
     1  S    0.000000
     2  O    3.695628   0.000000
     3  O    3.692742   2.268432   0.000000
     4  N    4.092605   3.374504   2.943793   0.000000
     5  C    2.782374   2.409317   2.418447   1.464286   0.000000
     6  C    1.821366   3.514672   3.027167   2.453206   1.529901
     7  C    3.187554   1.357036   1.225433   2.405102   1.517225
     8  H    2.990260   2.430355   3.277143   2.086810   1.096988
     9  H    2.396096   4.379297   4.048055   2.719262   2.170317
    10  H    2.391323   4.012405   2.840691   2.714085   2.179905
    11  H    4.822768   3.288096   3.248826   1.019501   2.045394
    12  H    4.347287   4.203485   3.891377   1.019375   2.045456
    13  H    1.340958   3.202724   2.900504   4.282327   2.977873
    14  H    4.309483   0.980943   2.390051   4.144961   3.276364
                    6          7          8          9         10
     6  C    0.000000
     7  C    2.530057   0.000000
     8  H    2.161864   2.142121   0.000000
     9  H    1.095430   3.477509   2.491276   0.000000
    10  H    1.095821   2.806270   3.080055   1.770092   0.000000
    11  H    3.340724   2.628152   2.334348   3.623384   3.674394
    12  H    2.634022   3.303864   2.386648   2.466306   2.980993
    13  H    2.388443   2.712126   3.417307   3.313239   2.571210
    14  H    4.281499   1.948520   3.406444   5.225471   4.626394
                   11         12         13         14
    11  H    0.000000
    12  H    1.629632   0.000000
    13  H    4.926330   4.807383   0.000000
    14  H    4.009367   5.045804   3.551552   0.000000
 Stoichiometry    C3H7NO2S(1-,2)
 Framework group  C1[X(C3H7NO2S)]
 Deg. of freedom    36
 Full point group                 C1      NOp   1
 Largest Abelian subgroup         C1      NOp   1
 Largest concise Abelian subgroup C1      NOp   1
                         Standard orientation:                         
 ---------------------------------------------------------------------
 Center     Atomic      Atomic             Coordinates (Angstroms)
 Number     Number       Type             X           Y           Z
 ---------------------------------------------------------------------
      1         16           0        2.132256   -0.379927   -0.099603
      2          8           0       -1.317679   -1.447816   -0.883968
      3          8           0       -1.264302   -0.796468    1.288285
      4          7           0       -1.316570    1.823010   -0.053923
      5          6           0       -0.405360    0.725246   -0.383686
      6          6           0        0.963752    0.972004    0.252898
      7          6           0       -1.043486   -0.561174    0.106099
      8          1           0       -0.302356    0.679758   -1.474880
      9          1           0        1.400546    1.901534   -0.128090
     10          1           0        0.883181    1.062283    1.342018
     11          1           0       -2.191125    1.706025   -0.564658
     12          1           0       -0.918183    2.705345   -0.373137
     13          1           0        1.507980   -1.324665    0.618672
     14          1           0       -1.713739   -2.274711   -0.535214
 ---------------------------------------------------------------------
 Rotational constants (GHZ):           2.7208729           1.6294960           1.2580834
 Standard basis: Aug-CC-pVTZ (5D, 7F)
 There are   564 symmetry adapted cartesian basis functions of A   symmetry.
 There are   487 symmetry adapted basis functions of A   symmetry.
   487 basis functions,   735 primitive gaussians,   564 cartesian basis functions
    33 alpha electrons       32 beta electrons
       nuclear repulsion energy       380.2785845009 Hartrees.
 NAtoms=   14 NActive=   14 NUniq=   14 SFac= 1.00D+00 NAtFMM=   60 NAOKFM=F Big=F
 Integral buffers will be    131072 words long.
 Raffenetti 2 integral format.
 Two-electron integral symmetry is turned on.
 Nuclear repulsion after empirical dispersion term =      380.2717207658 Hartrees.
 ------------------------------------------------------------------------------
 Polarizable Continuum Model (PCM)
 =================================
 Model                : PCM.
 Atomic radii         : SMD-Coulomb.
 Polarization charges : Total charges.
 Charge compensation  : None.
 Solution method      : On-the-fly selection.
 Cavity type          : VdW (van der Waals Surface) (Alpha=1.000).
 Cavity algorithm     : GePol (No added spheres)
                        Default sphere list used, NSphG=   14.
                        Lebedev-Laikov grids with approx.  5.0 points / Ang**2.
                        Smoothing algorithm: York/Karplus (Gamma=1.0000).
                        Polarization charges: spherical gaussians, with
                                              point-specific exponents (IZeta= 3).
                        Self-potential: point-specific (ISelfS= 7).
                        Self-field    : sphere-specific E.n sum rule (ISelfD= 2).
 1st derivatives      : Analytical E(r).r(x)/FMM algorithm (CHGder, D1EAlg=3).
                        Cavity 1st derivative terms included.
 Solvent              : DiethylEther, Eps=   4.240000 Eps(inf)=   1.829527
 ------------------------------------------------------------------------------
 Spheres list:
 ISph  on   Nord     Re0    Alpha      Xe            Ye            Ze
    1   S      1    2.4900  1.000      2.132256     -0.379927     -0.099603
    2   O      2    2.2940  1.000     -1.317679     -1.447816     -0.883968
    3   O      3    2.2940  1.000     -1.264302     -0.796468      1.288285
    4   N      4    1.8900  1.000     -1.316570      1.823010     -0.053923
    5   C      5    1.8500  1.000     -0.405360      0.725246     -0.383686
    6   C      6    1.8500  1.000      0.963752      0.972004      0.252898
    7   C      7    1.8500  1.000     -1.043486     -0.561174      0.106099
    8   H      8    1.2000  1.000     -0.302356      0.679758     -1.474880
    9   H      9    1.2000  1.000      1.400546      1.901534     -0.128090
   10   H     10    1.2000  1.000      0.883181      1.062283      1.342018
   11   H     11    1.2000  1.000     -2.191125      1.706025     -0.564658
   12   H     12    1.2000  1.000     -0.918183      2.705345     -0.373137
   13   H     13    1.2000  1.000      1.507980     -1.324665      0.618672
   14   H     14    1.2000  1.000     -1.713739     -2.274711     -0.535214
 ------------------------------------------------------------------------------
 ------------------------------------------------------------------------------
 Atomic radii for non-electrostatic terms: SMD-CDS.
 ------------------------------------------------------------------------------
 Nuclear repulsion after PCM non-electrostatic terms =      380.2673893145 Hartrees.
 One-electron integrals computed using PRISM.
 NBasis=   487 RedAO= T EigKep=  5.92D-06  NBF=   487
 NBsUse=   487 1.00D-06 EigRej= -1.00D+00 NBFU=   487
 ExpMin= 2.53D-02 ExpMax= 3.74D+05 ExpMxC= 1.18D+03 IAcc=3 IRadAn=         5 AccDes= 0.00D+00
 Harris functional with IExCor= 4639 and IRadAn=       5 diagonalized for initial guess.
 HarFok:  IExCor= 4639 AccDes= 0.00D+00 IRadAn=         5 IDoV= 1 UseB2=F ITyADJ=14
 ICtDFT=  3500011 ScaDFX=  1.000000  1.000000  1.000000  1.000000
 FoFCou: FMM=F IPFlag=           0 FMFlag=      100000 FMFlg1=           0
         NFxFlg=           0 DoJE=T BraDBF=F KetDBF=T FulRan=T
         wScrn=  0.000000 ICntrl=       500 IOpCl=  0 I1Cent=   200000004 NGrid=           0
         NMat0=    1 NMatS0=      1 NMatT0=    0 NMatD0=    1 NMtDS0=    0 NMtDT0=    0
 Petite list used in FoFCou.
 Initial guess <Sx>= 0.0000 <Sy>= 0.0000 <Sz>= 0.5000 <S**2>= 0.7500 S= 0.5000
 Requested convergence on RMS density matrix=1.00D-08 within 128 cycles.
 Requested convergence on MAX density matrix=1.00D-06.
 Requested convergence on             energy=1.00D-06.
 No special actions if energy rises.
 Inv3:  Mode=1 IEnd=     5007792.
 Iteration    1 A*A^-1 deviation from unit magnitude is 3.00D-15 for    109.
 Iteration    1 A*A^-1 deviation from orthogonality  is 2.41D-15 for   1275    255.
 Iteration    1 A^-1*A deviation from unit magnitude is 3.11D-15 for   1003.
 Iteration    1 A^-1*A deviation from orthogonality  is 6.70D-14 for    232    214.
 Restarting incremental Fock formation.
 Restarting incremental Fock formation.
 Error on total polarization charges =  0.16934
 SCF Done:  E(UwB97XD) =  -721.996818776     A.U. after   45 cycles
            NFock= 45  Conv=0.36D-08     -V/T= 2.0044
 <Sx>= 0.0000 <Sy>= 0.0000 <Sz>= 0.5000 <S**2>= 0.7505 S= 0.5003
 <L.S>=  0.00000000000    
 SMD-CDS (non-electrostatic) energy       (kcal/mol) =      -2.72
 (included in total energy above)
 Annihilation of the first spin contaminant:
 S**2 before annihilation     0.7505,   after     0.7500

 **********************************************************************

            Population analysis using the SCF Density.

 **********************************************************************

 Orbital symmetries:
 Alpha Orbitals:
       Occupied  (A) (A) (A) (A) (A) (A) (A) (A) (A) (A) (A) (A)
                 (A) (A) (A) (A) (A) (A) (A) (A) (A) (A) (A) (A)
                 (A) (A) (A) (A) (A) (A) (A) (A) (A)
       Virtual   (A) (A) (A) (A) (A) (A) (A) (A) (A) (A) (A) (A)
                 (A) (A) (A) (A) (A) (A) (A) (A) (A) (A) (A) (A)
                 (A) (A) (A) (A) (A) (A) (A) (A) (A) (A) (A) (A)
                 (A) (A) (A) (A) (A) (A) (A) (A) (A) (A) (A) (A)
                 (A) (A) (A) (A) (A) (A) (A) (A) (A) (A) (A) (A)
                 (A) (A) (A) (A) (A) (A) (A) (A) (A) (A) (A) (A)
                 (A) (A) (A) (A) (A) (A) (A) (A) (A) (A) (A) (A)
                 (A) (A) (A) (A) (A) (A) (A) (A) (A) (A) (A) (A)
                 (A) (A) (A) (A) (A) (A) (A) (A) (A) (A) (A) (A)
                 (A) (A) (A) (A) (A) (A) (A) (A) (A) (A) (A) (A)
                 (A) (A) (A) (A) (A) (A) (A) (A) (A) (A) (A) (A)
                 (A) (A) (A) (A) (A) (A) (A) (A) (A) (A) (A) (A)
                 (A) (A) (A) (A) (A) (A) (A) (A) (A) (A) (A) (A)
                 (A) (A) (A) (A) (A) (A) (A) (A) (A) (A) (A) (A)
                 (A) (A) (A) (A) (A) (A) (A) (A) (A) (A) (A) (A)
                 (A) (A) (A) (A) (A) (A) (A) (A) (A) (A) (A) (A)
                 (A) (A) (A) (A) (A) (A) (A) (A) (A) (A) (A) (A)
                 (A) (A) (A) (A) (A) (A) (A) (A) (A) (A) (A) (A)
                 (A) (A) (A) (A) (A) (A) (A) (A) (A) (A) (A) (A)
                 (A) (A) (A) (A) (A) (A) (A) (A) (A) (A) (A) (A)
                 (A) (A) (A) (A) (A) (A) (A) (A) (A) (A) (A) (A)
                 (A) (A) (A) (A) (A) (A) (A) (A) (A) (A) (A) (A)
                 (A) (A) (A) (A) (A) (A) (A) (A) (A) (A) (A) (A)
                 (A) (A) (A) (A) (A) (A) (A) (A) (A) (A) (A) (A)
                 (A) (A) (A) (A) (A) (A) (A) (A) (A) (A) (A) (A)
                 (A) (A) (A) (A) (A) (A) (A) (A) (A) (A) (A) (A)
                 (A) (A) (A) (A) (A) (A) (A) (A) (A) (A) (A) (A)
                 (A) (A) (A) (A) (A) (A) (A) (A) (A) (A) (A) (A)
                 (A) (A) (A) (A) (A) (A) (A) (A) (A) (A) (A) (A)
                 (A) (A) (A) (A) (A) (A) (A) (A) (A) (A) (A) (A)
                 (A) (A) (A) (A) (A) (A) (A) (A) (A) (A) (A) (A)
                 (A) (A) (A) (A) (A) (A) (A) (A) (A) (A) (A) (A)
                 (A) (A) (A) (A) (A) (A) (A) (A) (A) (A) (A) (A)
                 (A) (A) (A) (A) (A) (A) (A) (A) (A) (A) (A) (A)
                 (A) (A) (A) (A) (A) (A) (A) (A) (A) (A) (A) (A)
                 (A) (A) (A) (A) (A) (A) (A) (A) (A) (A) (A) (A)
                 (A) (A) (A) (A) (A) (A) (A) (A) (A) (A) (A) (A)
                 (A) (A) (A) (A) (A) (A) (A) (A) (A) (A)
 Beta  Orbitals:
       Occupied  (A) (A) (A) (A) (A) (A) (A) (A) (A) (A) (A) (A)
                 (A) (A) (A) (A) (A) (A) (A) (A) (A) (A) (A) (A)
                 (A) (A) (A) (A) (A) (A) (A) (A)
       Virtual   (A) (A) (A) (A) (A) (A) (A) (A) (A) (A) (A) (A)
                 (A) (A) (A) (A) (A) (A) (A) (A) (A) (A) (A) (A)
                 (A) (A) (A) (A) (A) (A) (A) (A) (A) (A) (A) (A)
                 (A) (A) (A) (A) (A) (A) (A) (A) (A) (A) (A) (A)
                 (A) (A) (A) (A) (A) (A) (A) (A) (A) (A) (A) (A)
                 (A) (A) (A) (A) (A) (A) (A) (A) (A) (A) (A) (A)
                 (A) (A) (A) (A) (A) (A) (A) (A) (A) (A) (A) (A)
                 (A) (A) (A) (A) (A) (A) (A) (A) (A) (A) (A) (A)
                 (A) (A) (A) (A) (A) (A) (A) (A) (A) (A) (A) (A)
                 (A) (A) (A) (A) (A) (A) (A) (A) (A) (A) (A) (A)
                 (A) (A) (A) (A) (A) (A) (A) (A) (A) (A) (A) (A)
                 (A) (A) (A) (A) (A) (A) (A) (A) (A) (A) (A) (A)
                 (A) (A) (A) (A) (A) (A) (A) (A) (A) (A) (A) (A)
                 (A) (A) (A) (A) (A) (A) (A) (A) (A) (A) (A) (A)
                 (A) (A) (A) (A) (A) (A) (A) (A) (A) (A) (A) (A)
                 (A) (A) (A) (A) (A) (A) (A) (A) (A) (A) (A) (A)
                 (A) (A) (A) (A) (A) (A) (A) (A) (A) (A) (A) (A)
                 (A) (A) (A) (A) (A) (A) (A) (A) (A) (A) (A) (A)
                 (A) (A) (A) (A) (A) (A) (A) (A) (A) (A) (A) (A)
                 (A) (A) (A) (A) (A) (A) (A) (A) (A) (A) (A) (A)
                 (A) (A) (A) (A) (A) (A) (A) (A) (A) (A) (A) (A)
                 (A) (A) (A) (A) (A) (A) (A) (A) (A) (A) (A) (A)
                 (A) (A) (A) (A) (A) (A) (A) (A) (A) (A) (A) (A)
                 (A) (A) (A) (A) (A) (A) (A) (A) (A) (A) (A) (A)
                 (A) (A) (A) (A) (A) (A) (A) (A) (A) (A) (A) (A)
                 (A) (A) (A) (A) (A) (A) (A) (A) (A) (A) (A) (A)
                 (A) (A) (A) (A) (A) (A) (A) (A) (A) (A) (A) (A)
                 (A) (A) (A) (A) (A) (A) (A) (A) (A) (A) (A) (A)
                 (A) (A) (A) (A) (A) (A) (A) (A) (A) (A) (A) (A)
                 (A) (A) (A) (A) (A) (A) (A) (A) (A) (A) (A) (A)
                 (A) (A) (A) (A) (A) (A) (A) (A) (A) (A) (A) (A)
                 (A) (A) (A) (A) (A) (A) (A) (A) (A) (A) (A) (A)
                 (A) (A) (A) (A) (A) (A) (A) (A) (A) (A) (A) (A)
                 (A) (A) (A) (A) (A) (A) (A) (A) (A) (A) (A) (A)
                 (A) (A) (A) (A) (A) (A) (A) (A) (A) (A) (A) (A)
                 (A) (A) (A) (A) (A) (A) (A) (A) (A) (A) (A) (A)
                 (A) (A) (A) (A) (A) (A) (A) (A) (A) (A) (A) (A)
                 (A) (A) (A) (A) (A) (A) (A) (A) (A) (A) (A)
 The electronic state is 2-A.
 Alpha  occ. eigenvalues --  -89.02511 -19.27366 -19.21179 -14.38090 -10.39227
 Alpha  occ. eigenvalues --  -10.29974 -10.29542  -8.03581  -5.98534  -5.98193
 Alpha  occ. eigenvalues --   -5.97618  -1.17403  -1.08392  -0.96244  -0.86494
 Alpha  occ. eigenvalues --   -0.77520  -0.72053  -0.64395  -0.57449  -0.54794
 Alpha  occ. eigenvalues --   -0.53825  -0.52455  -0.49392  -0.46985  -0.45805
 Alpha  occ. eigenvalues --   -0.44039  -0.42991  -0.38446  -0.38074  -0.33664
 Alpha  occ. eigenvalues --   -0.30101  -0.29774  -0.05631
 Alpha virt. eigenvalues --    0.05204   0.06026   0.06788   0.07442   0.08400
 Alpha virt. eigenvalues --    0.08597   0.09249   0.09948   0.11425   0.12293
 Alpha virt. eigenvalues --    0.13119   0.13274   0.13650   0.14234   0.14848
 Alpha virt. eigenvalues --    0.14937   0.15556   0.16331   0.17058   0.17393
 Alpha virt. eigenvalues --    0.17790   0.18341   0.18870   0.20181   0.21406
 Alpha virt. eigenvalues --    0.21678   0.21986   0.23469   0.23933   0.24930
 Alpha virt. eigenvalues --    0.25482   0.26141   0.27228   0.27768   0.28040
 Alpha virt. eigenvalues --    0.28494   0.29059   0.30020   0.30341   0.31172
 Alpha virt. eigenvalues --    0.31613   0.32191   0.32651   0.33730   0.34687
 Alpha virt. eigenvalues --    0.35272   0.36061   0.36392   0.37451   0.37701
 Alpha virt. eigenvalues --    0.38221   0.38595   0.39912   0.40169   0.40677
 Alpha virt. eigenvalues --    0.41398   0.41863   0.42338   0.43152   0.43479
 Alpha virt. eigenvalues --    0.43961   0.45118   0.45581   0.45825   0.46347
 Alpha virt. eigenvalues --    0.46936   0.47381   0.47958   0.48126   0.49355
 Alpha virt. eigenvalues --    0.49883   0.50250   0.51048   0.52363   0.52936
 Alpha virt. eigenvalues --    0.54243   0.54799   0.55179   0.55717   0.57112
 Alpha virt. eigenvalues --    0.57690   0.59590   0.59843   0.60322   0.60765
 Alpha virt. eigenvalues --    0.61148   0.63679   0.63997   0.64290   0.65489
 Alpha virt. eigenvalues --    0.65627   0.66414   0.66975   0.68239   0.68973
 Alpha virt. eigenvalues --    0.69747   0.71283   0.71785   0.72786   0.74277
 Alpha virt. eigenvalues --    0.74795   0.75748   0.76931   0.78197   0.78261
 Alpha virt. eigenvalues --    0.79490   0.79836   0.80430   0.81851   0.82432
 Alpha virt. eigenvalues --    0.83104   0.84572   0.84877   0.85383   0.86760
 Alpha virt. eigenvalues --    0.87809   0.88100   0.88862   0.89551   0.90679
 Alpha virt. eigenvalues --    0.91697   0.92072   0.92753   0.93305   0.94686
 Alpha virt. eigenvalues --    0.95621   0.96772   0.97008   0.97561   0.98534
 Alpha virt. eigenvalues --    0.99539   1.00938   1.01104   1.01949   1.02417
 Alpha virt. eigenvalues --    1.03505   1.04699   1.05410   1.06460   1.07241
 Alpha virt. eigenvalues --    1.07713   1.09724   1.09976   1.11557   1.12153
 Alpha virt. eigenvalues --    1.13252   1.13573   1.15072   1.16943   1.17300
 Alpha virt. eigenvalues --    1.18444   1.18989   1.19978   1.20576   1.21181
 Alpha virt. eigenvalues --    1.22006   1.22550   1.24096   1.24743   1.25645
 Alpha virt. eigenvalues --    1.26012   1.26615   1.27691   1.27987   1.28770
 Alpha virt. eigenvalues --    1.30416   1.31824   1.32645   1.33887   1.34919
 Alpha virt. eigenvalues --    1.35375   1.36403   1.37484   1.38166   1.39792
 Alpha virt. eigenvalues --    1.41280   1.41913   1.42951   1.44003   1.44463
 Alpha virt. eigenvalues --    1.45447   1.46844   1.47907   1.48497   1.50158
 Alpha virt. eigenvalues --    1.50869   1.51788   1.52673   1.54940   1.55085
 Alpha virt. eigenvalues --    1.56364   1.58005   1.59937   1.60771   1.61903
 Alpha virt. eigenvalues --    1.62667   1.62870   1.63663   1.64677   1.65319
 Alpha virt. eigenvalues --    1.65796   1.68951   1.69154   1.69189   1.70406
 Alpha virt. eigenvalues --    1.71329   1.72521   1.73958   1.76280   1.76821
 Alpha virt. eigenvalues --    1.77790   1.78910   1.80568   1.81711   1.82735
 Alpha virt. eigenvalues --    1.83902   1.86178   1.86608   1.88951   1.90146
 Alpha virt. eigenvalues --    1.92242   1.93313   1.94807   1.96029   1.97916
 Alpha virt. eigenvalues --    1.98673   2.00383   2.02297   2.04061   2.04829
 Alpha virt. eigenvalues --    2.08444   2.08941   2.10010   2.12860   2.13341
 Alpha virt. eigenvalues --    2.16718   2.17102   2.17383   2.19405   2.20301
 Alpha virt. eigenvalues --    2.21837   2.22583   2.25853   2.27002   2.28624
 Alpha virt. eigenvalues --    2.29667   2.32274   2.32914   2.33245   2.35115
 Alpha virt. eigenvalues --    2.36148   2.36571   2.38824   2.39147   2.40424
 Alpha virt. eigenvalues --    2.41869   2.42982   2.44433   2.45239   2.46772
 Alpha virt. eigenvalues --    2.48713   2.49208   2.50488   2.52582   2.53032
 Alpha virt. eigenvalues --    2.54651   2.56608   2.57056   2.60266   2.60979
 Alpha virt. eigenvalues --    2.63907   2.64371   2.66322   2.66988   2.70597
 Alpha virt. eigenvalues --    2.72413   2.74699   2.76518   2.78672   2.82286
 Alpha virt. eigenvalues --    2.84202   2.85673   2.85851   2.89386   2.90990
 Alpha virt. eigenvalues --    2.94464   2.96994   2.99367   3.00710   3.05866
 Alpha virt. eigenvalues --    3.06583   3.15172   3.18687   3.23397   3.26306
 Alpha virt. eigenvalues --    3.26604   3.29278   3.32366   3.33523   3.37537
 Alpha virt. eigenvalues --    3.41393   3.42663   3.44524   3.47524   3.51119
 Alpha virt. eigenvalues --    3.52800   3.54216   3.55585   3.59455   3.61005
 Alpha virt. eigenvalues --    3.63768   3.64679   3.68875   3.69500   3.71982
 Alpha virt. eigenvalues --    3.73940   3.74963   3.77284   3.77683   3.78634
 Alpha virt. eigenvalues --    3.82656   3.84113   3.86436   3.88008   3.88859
 Alpha virt. eigenvalues --    3.92002   3.94777   3.95695   3.96840   3.98100
 Alpha virt. eigenvalues --    3.99902   4.03834   4.04503   4.06238   4.07877
 Alpha virt. eigenvalues --    4.10754   4.11533   4.12642   4.14820   4.16445
 Alpha virt. eigenvalues --    4.17758   4.18741   4.20173   4.21119   4.24172
 Alpha virt. eigenvalues --    4.26689   4.27118   4.29903   4.31296   4.33175
 Alpha virt. eigenvalues --    4.34490   4.35645   4.38490   4.41351   4.42777
 Alpha virt. eigenvalues --    4.44410   4.46317   4.46990   4.47925   4.50288
 Alpha virt. eigenvalues --    4.52666   4.54811   4.55771   4.56637   4.59141
 Alpha virt. eigenvalues --    4.63921   4.65045   4.66100   4.66615   4.72244
 Alpha virt. eigenvalues --    4.73891   4.77389   4.79820   4.80682   4.83342
 Alpha virt. eigenvalues --    4.86439   4.88961   4.89664   4.90805   4.93628
 Alpha virt. eigenvalues --    4.98245   5.00294   5.02760   5.03867   5.06376
 Alpha virt. eigenvalues --    5.08268   5.09777   5.10347   5.13496   5.13821
 Alpha virt. eigenvalues --    5.18578   5.19146   5.24117   5.26256   5.27720
 Alpha virt. eigenvalues --    5.32248   5.36181   5.38250   5.40623   5.47099
 Alpha virt. eigenvalues --    5.55262   5.56169   5.57527   5.70728   5.72764
 Alpha virt. eigenvalues --    5.74430   5.77065   5.80777   5.84271   5.93502
 Alpha virt. eigenvalues --    5.97352   6.01837   6.06205   6.10240   6.12221
 Alpha virt. eigenvalues --    6.20158   6.32509   6.39067   6.42389   6.50327
 Alpha virt. eigenvalues --    6.52621   6.54056   6.56052   6.58396   6.60862
 Alpha virt. eigenvalues --    6.67937   6.73668   6.79422   6.83164   6.87691
 Alpha virt. eigenvalues --    6.89953   6.92096   7.01200   7.02454   7.03391
 Alpha virt. eigenvalues --    7.06337   7.17468   7.27254   7.28207   7.35019
 Alpha virt. eigenvalues --    7.37078   7.49823   7.55687   7.60816   7.64794
 Alpha virt. eigenvalues --    7.82050   7.94695   8.20088  14.64762  15.49546
 Alpha virt. eigenvalues --   16.33578  16.55735  17.53495  19.08468
  Beta  occ. eigenvalues --  -89.02506 -19.27318 -19.21121 -14.37946 -10.39194
  Beta  occ. eigenvalues --  -10.29946 -10.29533  -8.03575  -5.98520  -5.98187
  Beta  occ. eigenvalues --   -5.97614  -1.17294  -1.08268  -0.96039  -0.86399
  Beta  occ. eigenvalues --   -0.77341  -0.71975  -0.64305  -0.57362  -0.54686
  Beta  occ. eigenvalues --   -0.53717  -0.52258  -0.49291  -0.46829  -0.45747
  Beta  occ. eigenvalues --   -0.43972  -0.42912  -0.38394  -0.37750  -0.33591
  Beta  occ. eigenvalues --   -0.30085  -0.29660
  Beta virt. eigenvalues --    0.07096   0.08994   0.09243   0.10324   0.10938
  Beta virt. eigenvalues --    0.12228   0.13945   0.14140   0.14344   0.15477
  Beta virt. eigenvalues --    0.16262   0.16333   0.17843   0.18157   0.18768
  Beta virt. eigenvalues --    0.19198   0.19784   0.20556   0.21107   0.21284
  Beta virt. eigenvalues --    0.21683   0.22699   0.23782   0.24379   0.25232
  Beta virt. eigenvalues --    0.26099   0.26696   0.27301   0.27461   0.28142
  Beta virt. eigenvalues --    0.28572   0.29582   0.30083   0.30576   0.31058
  Beta virt. eigenvalues --    0.31472   0.32463   0.32629   0.33464   0.33492
  Beta virt. eigenvalues --    0.34670   0.35480   0.35879   0.36942   0.37204
  Beta virt. eigenvalues --    0.37521   0.37982   0.39108   0.39576   0.39866
  Beta virt. eigenvalues --    0.40417   0.41120   0.42063   0.42378   0.42757
  Beta virt. eigenvalues --    0.44127   0.44340   0.44402   0.44983   0.45328
  Beta virt. eigenvalues --    0.46590   0.47061   0.47480   0.48293   0.48584
  Beta virt. eigenvalues --    0.49008   0.49583   0.51051   0.51458   0.51678
  Beta virt. eigenvalues --    0.52110   0.52836   0.52972   0.54168   0.54773
  Beta virt. eigenvalues --    0.55430   0.56405   0.56997   0.57287   0.57975
  Beta virt. eigenvalues --    0.60141   0.60943   0.61489   0.61758   0.62114
  Beta virt. eigenvalues --    0.63075   0.63826   0.65160   0.65692   0.66259
  Beta virt. eigenvalues --    0.67131   0.67283   0.68005   0.68437   0.69337
  Beta virt. eigenvalues --    0.70619   0.71511   0.72705   0.73227   0.73877
  Beta virt. eigenvalues --    0.75114   0.75999   0.77283   0.78336   0.78984
  Beta virt. eigenvalues --    0.79952   0.80265   0.80982   0.81627   0.82798
  Beta virt. eigenvalues --    0.83211   0.84369   0.85322   0.86131   0.86683
  Beta virt. eigenvalues --    0.87759   0.88612   0.89005   0.89824   0.90901
  Beta virt. eigenvalues --    0.91820   0.92375   0.92891   0.93928   0.94798
  Beta virt. eigenvalues --    0.95775   0.96700   0.97440   0.97805   0.98198
  Beta virt. eigenvalues --    0.99521   1.00415   1.01757   1.02311   1.02997
  Beta virt. eigenvalues --    1.03443   1.04318   1.05633   1.06067   1.07379
  Beta virt. eigenvalues --    1.07875   1.08463   1.10164   1.11068   1.12053
  Beta virt. eigenvalues --    1.12713   1.13775   1.14612   1.15640   1.17665
  Beta virt. eigenvalues --    1.17993   1.18704   1.19597   1.20730   1.21129
  Beta virt. eigenvalues --    1.22215   1.22490   1.22982   1.24396   1.25054
  Beta virt. eigenvalues --    1.26335   1.26643   1.27190   1.28174   1.28322
  Beta virt. eigenvalues --    1.29528   1.30839   1.32093   1.33244   1.34269
  Beta virt. eigenvalues --    1.35302   1.35594   1.36937   1.37857   1.38378
  Beta virt. eigenvalues --    1.40075   1.41620   1.42246   1.43231   1.44236
  Beta virt. eigenvalues --    1.44756   1.45834   1.47286   1.48330   1.48918
  Beta virt. eigenvalues --    1.50366   1.51108   1.52024   1.52865   1.55108
  Beta virt. eigenvalues --    1.55459   1.56585   1.58062   1.60501   1.60857
  Beta virt. eigenvalues --    1.62363   1.63048   1.63188   1.63954   1.64877
  Beta virt. eigenvalues --    1.65551   1.66141   1.69226   1.69382   1.69443
  Beta virt. eigenvalues --    1.70661   1.71545   1.72787   1.74196   1.76467
  Beta virt. eigenvalues --    1.76923   1.77953   1.79119   1.80815   1.81865
  Beta virt. eigenvalues --    1.82856   1.84209   1.86300   1.86891   1.89190
  Beta virt. eigenvalues --    1.90230   1.92521   1.93479   1.95079   1.96116
  Beta virt. eigenvalues --    1.97972   1.99002   2.00807   2.02502   2.04449
  Beta virt. eigenvalues --    2.05202   2.08654   2.09078   2.10134   2.12957
  Beta virt. eigenvalues --    2.13438   2.16862   2.17190   2.17631   2.19519
  Beta virt. eigenvalues --    2.20382   2.21909   2.22727   2.25998   2.27250
  Beta virt. eigenvalues --    2.28655   2.29752   2.32428   2.33084   2.33364
  Beta virt. eigenvalues --    2.35327   2.36213   2.36679   2.38992   2.39309
  Beta virt. eigenvalues --    2.40526   2.42012   2.43132   2.44548   2.45415
  Beta virt. eigenvalues --    2.46853   2.48796   2.49267   2.50521   2.52654
  Beta virt. eigenvalues --    2.53131   2.54823   2.56697   2.57116   2.60401
  Beta virt. eigenvalues --    2.61052   2.64038   2.64452   2.66411   2.67050
  Beta virt. eigenvalues --    2.70748   2.72459   2.74766   2.76590   2.78754
  Beta virt. eigenvalues --    2.82445   2.84226   2.85753   2.85928   2.89474
  Beta virt. eigenvalues --    2.91071   2.94541   2.97066   2.99447   3.00781
  Beta virt. eigenvalues --    3.05969   3.06657   3.15232   3.18771   3.23513
  Beta virt. eigenvalues --    3.26399   3.26675   3.29462   3.32545   3.33573
  Beta virt. eigenvalues --    3.37658   3.41457   3.42709   3.44560   3.47629
  Beta virt. eigenvalues --    3.51177   3.52885   3.54267   3.55716   3.59551
  Beta virt. eigenvalues --    3.61134   3.63849   3.64782   3.68957   3.69578
  Beta virt. eigenvalues --    3.72046   3.74007   3.75047   3.77326   3.77698
  Beta virt. eigenvalues --    3.78751   3.82712   3.84196   3.86498   3.88105
  Beta virt. eigenvalues --    3.88926   3.92069   3.94862   3.95771   3.96926
  Beta virt. eigenvalues --    3.98126   3.99961   4.03971   4.04551   4.06359
  Beta virt. eigenvalues --    4.07913   4.10893   4.11591   4.12669   4.14851
  Beta virt. eigenvalues --    4.16516   4.17793   4.18760   4.20213   4.21085
  Beta virt. eigenvalues --    4.24199   4.26740   4.27169   4.29919   4.31290
  Beta virt. eigenvalues --    4.33188   4.34533   4.35717   4.38513   4.41425
  Beta virt. eigenvalues --    4.42842   4.44438   4.46353   4.47075   4.47984
  Beta virt. eigenvalues --    4.50326   4.52686   4.54804   4.55802   4.56642
  Beta virt. eigenvalues --    4.59213   4.63949   4.65085   4.66153   4.66719
  Beta virt. eigenvalues --    4.72275   4.73930   4.77434   4.79851   4.80722
  Beta virt. eigenvalues --    4.83374   4.86540   4.89026   4.89736   4.90891
  Beta virt. eigenvalues --    4.93705   4.98352   5.00360   5.02809   5.03934
  Beta virt. eigenvalues --    5.06425   5.08301   5.09817   5.10396   5.13531
  Beta virt. eigenvalues --    5.13878   5.18656   5.19229   5.24150   5.26311
  Beta virt. eigenvalues --    5.27764   5.32299   5.36241   5.38296   5.40688
  Beta virt. eigenvalues --    5.47183   5.55371   5.56235   5.57595   5.70811
  Beta virt. eigenvalues --    5.72942   5.74525   5.77109   5.80815   5.84354
  Beta virt. eigenvalues --    5.93535   5.97414   6.01912   6.06226   6.10349
  Beta virt. eigenvalues --    6.12413   6.20233   6.32581   6.39179   6.42508
  Beta virt. eigenvalues --    6.50395   6.52734   6.54123   6.56147   6.58449
  Beta virt. eigenvalues --    6.60952   6.68026   6.73743   6.79497   6.83270
  Beta virt. eigenvalues --    6.87798   6.90012   6.92182   7.01337   7.02597
  Beta virt. eigenvalues --    7.03516   7.06489   7.17560   7.27371   7.28350
  Beta virt. eigenvalues --    7.35129   7.37199   7.49926   7.55779   7.60902
  Beta virt. eigenvalues --    7.64851   7.82105   7.94760   8.20154  14.64924
  Beta virt. eigenvalues --   15.49673  16.33744  16.55858  17.53703  19.08575
          Condensed to atoms (all electrons):
               1          2          3          4          5          6
     1  S   16.220378  -0.073366  -0.042755  -0.175144   0.261894   0.058029
     2  O   -0.073366   9.043769   0.312800   0.980365  -1.261200   0.030124
     3  O   -0.042755   0.312800   9.281746   0.553792  -0.562989  -0.023304
     4  N   -0.175144   0.980365   0.553792  11.868015  -6.079023  -0.279031
     5  C    0.261894  -1.261200  -0.562989  -6.079023  13.881569   0.154004
     6  C    0.058029   0.030124  -0.023304  -0.279031   0.154004   5.849786
     7  C    0.289657  -1.757831  -1.158624  -3.234984   3.806745   0.074132
     8  H   -0.222896   0.732873   0.323946   2.599154  -3.540771  -0.181868
     9  H   -0.111294   0.037556   0.027518   0.385426  -0.631755   0.404730
    10  H   -0.019418  -0.004078   0.008954  -0.214519   0.223686   0.431199
    11  H   -0.061867   0.361125   0.220975   1.438365  -1.840634  -0.036175
    12  H   -0.016437   0.078761   0.049022   0.409176  -0.389852   0.010096
    13  H    0.323934   0.011825   0.023599  -0.001171  -0.008446   0.014575
    14  H   -0.017604   0.092384  -0.058123   0.083693  -0.135607  -0.003408
               7          8          9         10         11         12
     1  S    0.289657  -0.222896  -0.111294  -0.019418  -0.061867  -0.016437
     2  O   -1.757831   0.732873   0.037556  -0.004078   0.361125   0.078761
     3  O   -1.158624   0.323946   0.027518   0.008954   0.220975   0.049022
     4  N   -3.234984   2.599154   0.385426  -0.214519   1.438365   0.409176
     5  C    3.806745  -3.540771  -0.631755   0.223686  -1.840634  -0.389852
     6  C    0.074132  -0.181868   0.404730   0.431199  -0.036175   0.010096
     7  C   10.818962  -2.397044  -0.168898   0.028400  -1.326173  -0.296667
     8  H   -2.397044   2.827754   0.194393  -0.074240   0.885667   0.217145
     9  H   -0.168898   0.194393   0.588474  -0.071222   0.095443   0.017566
    10  H    0.028400  -0.074240  -0.071222   0.516994  -0.033324   0.004621
    11  H   -1.326173   0.885667   0.095443  -0.033324   1.804855   0.199862
    12  H   -0.296667   0.217145   0.017566   0.004621   0.199862   0.879741
    13  H   -0.037835  -0.000326   0.007220  -0.008787  -0.007358   0.000283
    14  H    0.032954   0.077276   0.009935  -0.004454   0.066053   0.012961
              13         14
     1  S    0.323934  -0.017604
     2  O    0.011825   0.092384
     3  O    0.023599  -0.058123
     4  N   -0.001171   0.083693
     5  C   -0.008446  -0.135607
     6  C    0.014575  -0.003408
     7  C   -0.037835   0.032954
     8  H   -0.000326   0.077276
     9  H    0.007220   0.009935
    10  H   -0.008787  -0.004454
    11  H   -0.007358   0.066053
    12  H    0.000283   0.012961
    13  H    0.483756   0.002217
    14  H    0.002217   0.742992
          Atomic-Atomic Spin Densities.
               1          2          3          4          5          6
     1  S    0.095689  -0.083170  -0.047639  -0.177916   0.278032  -0.020108
     2  O   -0.083170   0.688941   0.346614   0.947521  -1.168056   0.035415
     3  O   -0.047639   0.346614   0.371382   0.538694  -0.588726  -0.009477
     4  N   -0.177916   0.947521   0.538694   4.286773  -5.725282  -0.366662
     5  C    0.278032  -1.168056  -0.588726  -5.725282   8.579174   0.255781
     6  C   -0.020108   0.035415  -0.009477  -0.366662   0.255781   0.237784
     7  C    0.283364  -1.757278  -1.124862  -3.270473   4.045940   0.020160
     8  H   -0.204182   0.680271   0.310843   2.676207  -4.078651  -0.041496
     9  H   -0.018373   0.040327   0.028776   0.374155  -0.499794  -0.082760
    10  H    0.003125  -0.012039  -0.013996  -0.182364   0.191236   0.063320
    11  H   -0.061825   0.372046   0.217190   1.293296  -1.832008  -0.037469
    12  H   -0.018521   0.080842   0.052199   0.317424  -0.444390   0.005884
    13  H   -0.024781   0.007879   0.012082  -0.003305   0.007285  -0.000997
    14  H   -0.014579  -0.004819   0.003043   0.090206  -0.135325  -0.007022
               7          8          9         10         11         12
     1  S    0.283364  -0.204182  -0.018373   0.003125  -0.061825  -0.018521
     2  O   -1.757278   0.680271   0.040327  -0.012039   0.372046   0.080842
     3  O   -1.124862   0.310843   0.028776  -0.013996   0.217190   0.052199
     4  N   -3.270473   2.676207   0.374155  -0.182364   1.293296   0.317424
     5  C    4.045940  -4.078651  -0.499794   0.191236  -1.832008  -0.444390
     6  C    0.020160  -0.041496  -0.082760   0.063320  -0.037469   0.005884
     7  C    5.291849  -2.281600  -0.191690   0.078280  -1.349144  -0.298466
     8  H   -2.281600   2.179956   0.232572  -0.081879   0.881157   0.205076
     9  H   -0.191690   0.232572   0.027678  -0.029031   0.094022   0.016244
    10  H    0.078280  -0.081879  -0.029031   0.027691  -0.032297  -0.005223
    11  H   -1.349144   0.881157   0.094022  -0.032297   0.945730   0.284712
    12  H   -0.298466   0.205076   0.016244  -0.005223   0.284712  -0.004245
    13  H   -0.037426   0.001616   0.002298  -0.002924  -0.006954  -0.000448
    14  H   -0.063920   0.091167   0.009346  -0.003472   0.063666   0.012885
              13         14
     1  S   -0.024781  -0.014579
     2  O    0.007879  -0.004819
     3  O    0.012082   0.003043
     4  N   -0.003305   0.090206
     5  C    0.007285  -0.135325
     6  C   -0.000997  -0.007022
     7  C   -0.037426  -0.063920
     8  H    0.001616   0.091167
     9  H    0.002298   0.009346
    10  H   -0.002924  -0.003472
    11  H   -0.006954   0.063666
    12  H   -0.000448   0.012885
    13  H    0.025598  -0.000097
    14  H   -0.000097   0.027435
 Mulliken charges and spin densities:
               1          2
     1  S   -0.413109  -0.010885
     2  O   -0.585107   0.174494
     3  O   -0.956556   0.096124
     4  N   -1.334114   0.798274
     5  C    2.122379  -1.114783
     6  C   -0.502889   0.052352
     7  C    1.327206  -0.655267
     8  H   -0.441063   0.571058
     9  H    0.214908   0.003769
    10  H    0.216188   0.000428
    11  H   -0.766814   0.832124
    12  H   -0.176277   0.203973
    13  H    0.196515  -0.020174
    14  H    0.098732   0.068513
 Sum of Mulliken charges =  -1.00000   1.00000
 Mulliken charges and spin densities with hydrogens summed into heavy atoms:
               1          2
     1  S   -0.216594  -0.031058
     2  O   -0.486375   0.243008
     3  O   -0.956556   0.096124
     4  N   -2.277204   1.834371
     5  C    1.681317  -0.543726
     6  C   -0.071793   0.056549
     7  C    1.327206  -0.655267
 Electronic spatial extent (au):  <R**2>=           1063.5535
 Charge=             -1.0000 electrons
 Dipole moment (field-independent basis, Debye):
    X=              9.3292    Y=             -6.9228    Z=              3.7942  Tot=             12.2210
 Quadrupole moment (field-independent basis, Debye-Ang):
   XX=            -96.1996   YY=            -75.5180   ZZ=            -82.0415
   XY=             20.6248   XZ=             -7.6132   YZ=              8.5464
 Traceless Quadrupole moment (field-independent basis, Debye-Ang):
   XX=            -11.6133   YY=              9.0684   ZZ=              2.5449
   XY=             20.6248   XZ=             -7.6132   YZ=              8.5464
 Octapole moment (field-independent basis, Debye-Ang**2):
  XXX=            134.4805  YYY=           -134.1201  ZZZ=             74.9304  XYY=             61.5209
  XXY=            -70.4067  XXZ=             41.5129  XZZ=             54.2873  YZZ=            -38.2511
  YYZ=             35.1725  XYZ=            -22.3438
 Hexadecapole moment (field-independent basis, Debye-Ang**3):
 XXXX=          -1580.3452 YYYY=           -988.2648 ZZZZ=           -550.2778 XXXY=            286.1592
 XXXZ=           -183.8304 YYYX=            268.1193 YYYZ=            141.4568 ZZZX=           -130.9374
 ZZZY=            118.9037 XXYY=           -429.8903 XXZZ=           -361.9240 YYZZ=           -279.6781
 XXYZ=             75.6197 YYXZ=            -63.1081 ZZXY=             82.3944
 N-N= 3.802673893145D+02 E-N=-2.473373581772D+03  KE= 7.188678169183D+02
                          Isotropic Fermi Contact Couplings
        Atom                 a.u.       MegaHertz       Gauss      10(-4) cm-1
     1  S(33)              0.00320       1.10007       0.39253       0.36694
     2  O(17)              0.02692     -16.31930      -5.82313      -5.44353
     3  O(17)              0.01694     -10.26912      -3.66428      -3.42541
     4  N(14)              0.18810      60.77555      21.68623      20.27254
     5  C(13)              0.00606       6.81285       2.43099       2.27252
     6  C(13)              0.00327       3.67652       1.31187       1.22635
     7  C(13)             -0.00016      -0.17674      -0.06307      -0.05895
     8  H(1)              -0.00070      -3.14401      -1.12186      -1.04873
     9  H(1)               0.00028       1.26292       0.45064       0.42127
    10  H(1)               0.00006       0.25208       0.08995       0.08409
    11  H(1)              -0.00143      -6.38626      -2.27878      -2.13023
    12  H(1)              -0.00032      -1.42412      -0.50816      -0.47504
    13  H(1)              -0.00003      -0.15018      -0.05359      -0.05010
    14  H(1)              -0.00025      -1.12097      -0.39999      -0.37391
 --------------------------------------------------------
       Center         ----  Spin Dipole Couplings  ----
                      3XX-RR        3YY-RR        3ZZ-RR
 --------------------------------------------------------
     1   Atom       -0.010472      0.029419     -0.018947
     2   Atom        0.064502     -0.032123     -0.032380
     3   Atom        0.061176     -0.019416     -0.041761
     4   Atom       -0.004254     -0.020587      0.024841
     5   Atom       -0.010593      0.002671      0.007922
     6   Atom        0.008249     -0.004269     -0.003981
     7   Atom        0.031436     -0.013129     -0.018307
     8   Atom       -0.002118     -0.002711      0.004829
     9   Atom       -0.000009      0.000664     -0.000655
    10   Atom        0.000711     -0.001591      0.000879
    11   Atom        0.012808     -0.008376     -0.004432
    12   Atom       -0.001060      0.005982     -0.004922
    13   Atom        0.000725     -0.000184     -0.000541
    14   Atom       -0.002856      0.005187     -0.002331
 --------------------------------------------------------
                        XY            XZ            YZ
 --------------------------------------------------------
     1   Atom       -0.022114     -0.003002      0.009153
     2   Atom       -0.015701      0.016545     -0.004620
     3   Atom       -0.052684      0.020202     -0.010075
     4   Atom       -0.007118      0.021113     -0.005567
     5   Atom       -0.008454     -0.006455      0.017777
     6   Atom        0.006153      0.004360     -0.000038
     7   Atom       -0.020143      0.007962     -0.004639
     8   Atom       -0.001466      0.001210     -0.003739
     9   Atom       -0.000248      0.001161     -0.002278
    10   Atom        0.000228      0.000160     -0.000491
    11   Atom        0.005370      0.012255      0.001874
    12   Atom        0.007762     -0.000044     -0.002265
    13   Atom       -0.000702     -0.000001     -0.000508
    14   Atom       -0.000108      0.000185     -0.002914
 --------------------------------------------------------


 ---------------------------------------------------------------------------------
              Anisotropic Spin Dipole Couplings in Principal Axis System
 ---------------------------------------------------------------------------------

       Atom             a.u.   MegaHertz   Gauss  10(-4) cm-1        Axes

              Baa    -0.0214    -0.876    -0.313    -0.292 -0.5689 -0.3793  0.7298
     1 S(33)  Bbb    -0.0194    -0.797    -0.284    -0.266  0.7192  0.2010  0.6651
              Bcc     0.0408     1.672     0.597     0.558 -0.3989  0.9032  0.1584
 
              Baa    -0.0369     2.669     0.953     0.890 -0.0201  0.6607  0.7504
     2 O(17)  Bbb    -0.0329     2.384     0.851     0.795  0.2269  0.7340 -0.6401
              Bcc     0.0698    -5.054    -1.803    -1.686  0.9737 -0.1574  0.1647
 
              Baa    -0.0456     3.302     1.178     1.101  0.0415  0.4299  0.9019
     3 O(17)  Bbb    -0.0454     3.286     1.172     1.096  0.4660  0.7902 -0.3980
              Bcc     0.0910    -6.588    -2.351    -2.198  0.8838 -0.4368  0.1676
 
              Baa    -0.0234    -0.904    -0.322    -0.301  0.4245  0.9017 -0.0817
     4 N(14)  Bbb    -0.0137    -0.528    -0.188    -0.176  0.7743 -0.4083 -0.4834
              Bcc     0.0371     1.431     0.511     0.477  0.4692 -0.1420  0.8716
 
              Baa    -0.0153    -2.047    -0.730    -0.683  0.7477  0.6109 -0.2603
     5 C(13)  Bbb    -0.0110    -1.472    -0.525    -0.491  0.6053 -0.4659  0.6454
              Bcc     0.0262     3.518     1.255     1.174 -0.2729  0.6401  0.7182
 
              Baa    -0.0078    -1.042    -0.372    -0.347 -0.4259  0.7552  0.4984
     6 C(13)  Bbb    -0.0040    -0.542    -0.193    -0.181 -0.0158 -0.5569  0.8304
              Bcc     0.0118     1.584     0.565     0.528  0.9047  0.3458  0.2491
 
              Baa    -0.0219    -2.934    -1.047    -0.979  0.2209  0.8033  0.5531
     7 C(13)  Bbb    -0.0187    -2.514    -0.897    -0.839 -0.3209 -0.4757  0.8190
              Bcc     0.0406     5.448     1.944     1.817  0.9210 -0.3585  0.1527
 
              Baa    -0.0046    -2.459    -0.877    -0.820  0.3710  0.8787  0.3005
     8 H(1)   Bbb    -0.0021    -1.111    -0.396    -0.371  0.9093 -0.2780 -0.3096
              Bcc     0.0067     3.570     1.274     1.191  0.1885 -0.3881  0.9021
 
              Baa    -0.0026    -1.395    -0.498    -0.465 -0.3032  0.5280  0.7933
     9 H(1)   Bbb    -0.0001    -0.038    -0.014    -0.013  0.8947  0.4443  0.0462
              Bcc     0.0027     1.434     0.512     0.478 -0.3280  0.7237 -0.6071
 
              Baa    -0.0017    -0.913    -0.326    -0.305 -0.1046  0.9759  0.1914
    10 H(1)   Bbb     0.0007     0.369     0.132     0.123  0.9218  0.1674 -0.3497
              Bcc     0.0010     0.544     0.194     0.181  0.3733 -0.1398  0.9171
 
              Baa    -0.0112    -5.960    -2.127    -1.988 -0.4858  0.4192  0.7669
    11 H(1)   Bbb    -0.0091    -4.859    -1.734    -1.621  0.0397  0.8871 -0.4598
              Bcc     0.0203    10.819     3.861     3.609  0.8731  0.1929  0.4477
 
              Baa    -0.0069    -3.667    -1.309    -1.223  0.6601 -0.4977 -0.5627
    12 H(1)   Bbb    -0.0043    -2.317    -0.827    -0.773  0.5314 -0.2200  0.8180
              Bcc     0.0112     5.984     2.135     1.996  0.5309  0.8390 -0.1192
 
              Baa    -0.0010    -0.541    -0.193    -0.181  0.2653  0.6567  0.7060
    13 H(1)   Bbb    -0.0001    -0.069    -0.025    -0.023 -0.4578 -0.5586  0.6916
              Bcc     0.0011     0.611     0.218     0.204  0.8485 -0.5067  0.1525
 
              Baa    -0.0034    -1.797    -0.641    -0.599 -0.2661  0.3079  0.9135
    14 H(1)   Bbb    -0.0028    -1.505    -0.537    -0.502  0.9638  0.1026  0.2462
              Bcc     0.0062     3.301     1.178     1.101 -0.0179  0.9459 -0.3240
 

 ---------------------------------------------------------------------------------

 D1PCM: PCM CHGder 1st derivatives, ID1Alg=3 FixD1E=F DoIter=F DoCFld=F I1PDM=0.
 Calling FoFJK, ICntrl=      2127 FMM=F ISym2X=0 I1Cent= 0 IOpClX= 1 NMat=1 NMatS=1 NMatT=0.
 ***** Axes restored to original set *****
 -------------------------------------------------------------------
 Center     Atomic                   Forces (Hartrees/Bohr)
 Number     Number              X              Y              Z
 -------------------------------------------------------------------
      1       16           0.007041968    0.001259767    0.002971004
      2        8           0.000360053    0.000067151   -0.006269890
      3        8           0.007138528    0.003093955    0.026365989
      4        7           0.001941468   -0.002993839   -0.009374406
      5        6          -0.002050647   -0.009166784    0.012566334
      6        6          -0.007315280    0.000517687   -0.008582773
      7        6          -0.014895567    0.009762498   -0.022534375
      8        1           0.003103808    0.008025899   -0.002115286
      9        1          -0.002892336    0.005417435    0.000499072
     10        1          -0.001582148   -0.001752382    0.005603821
     11        1          -0.000896621   -0.000616427    0.001475279
     12        1           0.000044492    0.000547564    0.002249198
     13        1          -0.000436168   -0.000240317   -0.001124161
     14        1           0.010438451   -0.013922207   -0.001729808
 -------------------------------------------------------------------
 Cartesian Forces:  Max     0.026365989 RMS     0.007903902

 GradGradGradGradGradGradGradGradGradGradGradGradGradGradGradGradGradGrad
 Berny optimization.
 FormGI is forming the generalized inverse of G from B-inverse, IUseBI=4.
 Internal  Forces:  Max     0.026868996 RMS     0.005896097
 Search for a local minimum.
 Step number   1 out of a maximum of   69
 All quantities printed in internal units (Hartrees-Bohrs-Radians)
 Mixed Optimization -- RFO/linear search
 Second derivative matrix not updated -- first step.
 ITU=  0
     Eigenvalues ---    0.00230   0.00370   0.00538   0.00841   0.00967
     Eigenvalues ---    0.02260   0.04493   0.04671   0.04691   0.05001
     Eigenvalues ---    0.05591   0.06685   0.11413   0.13810   0.16000
     Eigenvalues ---    0.16000   0.16000   0.16000   0.17426   0.17921
     Eigenvalues ---    0.22019   0.24503   0.24994   0.25000   0.26346
     Eigenvalues ---    0.29433   0.30635   0.34017   0.34149   0.34193
     Eigenvalues ---    0.36433   0.44418   0.44438   0.51202   0.53551
     Eigenvalues ---    0.93016
 RFO step:  Lambda=-7.92282400D-03 EMin= 2.30000000D-03
 Linear search not attempted -- first point.
 Iteration  1 RMS(Cart)=  0.05716669 RMS(Int)=  0.00248823
 Iteration  2 RMS(Cart)=  0.00274062 RMS(Int)=  0.00059563
 Iteration  3 RMS(Cart)=  0.00000405 RMS(Int)=  0.00059562
 Iteration  4 RMS(Cart)=  0.00000000 RMS(Int)=  0.00059562
 Variable       Old X    -DE/DX   Delta X   Delta X   Delta X     New X
                                 (Linear)    (Quad)   (Total)
    R1        3.44188   0.00389   0.00000   0.01539   0.01539   3.45727
    R2        2.53404   0.00073   0.00000   0.00268   0.00268   2.53673
    R3        2.56443  -0.01784   0.00000  -0.03283  -0.03283   2.53159
    R4        1.85371  -0.01551   0.00000  -0.02983  -0.02983   1.82388
    R5        2.31573  -0.02687   0.00000  -0.02864  -0.02864   2.28709
    R6        2.76710   0.00347   0.00000   0.00932   0.00932   2.77642
    R7        1.92658   0.00159   0.00000   0.00352   0.00352   1.93010
    R8        1.92634   0.00034   0.00000   0.00075   0.00075   1.92709
    R9        2.89109  -0.00389   0.00000  -0.01287  -0.01287   2.87823
   R10        2.86714  -0.00132   0.00000  -0.00419  -0.00419   2.86295
   R11        2.07301  -0.00100   0.00000  -0.00288  -0.00288   2.07013
   R12        2.07006  -0.00537   0.00000  -0.01536  -0.01536   2.05470
   R13        2.07080  -0.00520   0.00000  -0.01489  -0.01489   2.05591
    A1        1.69169  -0.00161   0.00000  -0.00959  -0.00959   1.68211
    A2        1.95299  -0.01491   0.00000  -0.08878  -0.08878   1.86421
    A3        1.91237   0.00009   0.00000  -0.00483  -0.00495   1.90742
    A4        1.91260  -0.00222   0.00000  -0.01860  -0.01871   1.89388
    A5        1.85219  -0.00027   0.00000  -0.01303  -0.01328   1.83891
    A6        1.92012  -0.00420   0.00000  -0.02410  -0.02392   1.89620
    A7        1.87677   0.00372   0.00000   0.01729   0.01657   1.89334
    A8        1.88971   0.00417   0.00000   0.06665   0.06674   1.95645
    A9        1.95931  -0.00198   0.00000  -0.02823  -0.02849   1.93082
   A10        1.91405   0.00040   0.00000  -0.00871  -0.00903   1.90502
   A11        1.90228  -0.00183   0.00000  -0.01876  -0.01998   1.88230
   A12        1.95398   0.01027   0.00000   0.04746   0.04707   2.00105
   A13        1.88254  -0.00554   0.00000  -0.04418  -0.04354   1.83901
   A14        1.87620  -0.00005   0.00000   0.03142   0.03068   1.90688
   A15        1.92728  -0.00313   0.00000  -0.03046  -0.03019   1.89709
   A16        1.94018  -0.00385   0.00000  -0.00798  -0.00925   1.93093
   A17        1.88082   0.00207   0.00000   0.00266   0.00260   1.88342
   A18        2.14358  -0.00203   0.00000  -0.00880  -0.01046   2.13312
   A19        1.98606  -0.00586   0.00000  -0.02360  -0.02534   1.96072
   A20        2.15317   0.00785   0.00000   0.02961   0.02777   2.18095
    D1       -1.17795  -0.00149   0.00000  -0.08049  -0.08137  -1.25932
    D2        2.98145  -0.00030   0.00000  -0.04257  -0.04263   2.93882
    D3        0.95764   0.00012   0.00000  -0.03934  -0.03840   0.91924
    D4        0.01007   0.00151   0.00000   0.07415   0.07306   0.08313
    D5        3.12331  -0.00023   0.00000  -0.03221  -0.03112   3.09220
    D6        3.03168   0.00063   0.00000   0.02422   0.02427   3.05595
    D7       -1.11279  -0.00199   0.00000  -0.01405  -0.01451  -1.12730
    D8        0.94019   0.00007   0.00000   0.00842   0.00905   0.94924
    D9        1.00607   0.00216   0.00000   0.05327   0.05317   1.05925
   D10       -3.13841  -0.00045   0.00000   0.01500   0.01440  -3.12401
   D11       -1.08542   0.00161   0.00000   0.03747   0.03795  -1.04747
   D12        3.12358   0.00163   0.00000   0.02744   0.02778  -3.13182
   D13       -1.06173  -0.00070   0.00000  -0.01775  -0.01779  -1.07951
   D14        1.02491  -0.00265   0.00000  -0.03957  -0.03939   0.98552
   D15        1.03438   0.00107   0.00000   0.04041   0.04045   1.07483
   D16        3.13225  -0.00126   0.00000  -0.00478  -0.00512   3.12713
   D17       -1.06430  -0.00321   0.00000  -0.02660  -0.02672  -1.09102
   D18       -1.08296   0.00443   0.00000   0.08915   0.08930  -0.99365
   D19        1.01492   0.00210   0.00000   0.04396   0.04374   1.05865
   D20        3.10156   0.00015   0.00000   0.02213   0.02213   3.12369
   D21        2.05592   0.00314   0.00000   0.00559   0.00576   2.06169
   D22       -1.11420   0.00121   0.00000  -0.10215  -0.10254  -1.21674
   D23       -2.11296  -0.00082   0.00000  -0.03023  -0.03027  -2.14323
   D24        1.00011  -0.00275   0.00000  -0.13797  -0.13858   0.86153
   D25        0.01112  -0.00287   0.00000  -0.07282  -0.07210  -0.06099
   D26        3.12418  -0.00481   0.00000  -0.18056  -0.18041   2.94377
         Item               Value     Threshold  Converged?
 Maximum Force            0.026869     0.000450     NO 
 RMS     Force            0.005896     0.000300     NO 
 Maximum Displacement     0.188428     0.001800     NO 
 RMS     Displacement     0.057616     0.001200     NO 
 Predicted change in Energy=-4.490060D-03
 GradGradGradGradGradGradGradGradGradGradGradGradGradGradGradGradGradGrad

                          Input orientation:                          
 ---------------------------------------------------------------------
 Center     Atomic      Atomic             Coordinates (Angstroms)
 Number     Number       Type             X           Y           Z
 ---------------------------------------------------------------------
      1         16           0        2.256501    1.116276    0.035603
      2          8           0       -1.387515    1.120468    0.934528
      3          8           0       -1.115471    0.595312   -1.219195
      4          7           0       -0.422526   -2.003995    0.152629
      5          6           0        0.100834   -0.664342    0.452668
      6          6           0        1.445467   -0.499715   -0.243513
      7          6           0       -0.891214    0.363089   -0.052769
      8          1           0        0.231204   -0.504295    1.528509
      9          1           0        2.135810   -1.240736    0.152139
     10          1           0        1.346943   -0.671702   -1.313248
     11          1           0       -1.283999   -2.155544    0.679968
     12          1           0        0.236847   -2.696188    0.507636
     13          1           0        1.421491    1.836402   -0.730007
     14          1           0       -1.969771    1.770369    0.522053
 ---------------------------------------------------------------------
                    Distance matrix (angstroms):
                    1          2          3          4          5
     1  S    0.000000
     2  O    3.753257   0.000000
     3  O    3.635398   2.233454   0.000000
     4  N    4.114240   3.362267   3.019681   0.000000
     5  C    2.826915   2.373377   2.421002   1.469217   0.000000
     6  C    1.829511   3.469663   2.951176   2.430881   1.523092
     7  C    3.237779   1.339661   1.210276   2.421765   1.515005
     8  H    2.992799   2.369160   3.251545   2.137640   1.095465
     9  H    2.362975   4.312915   3.977745   2.669765   2.136276
    10  H    2.417345   3.967573   2.770858   2.656092   2.161320
    11  H    4.863656   3.287517   3.347003   1.021366   2.047708
    12  H    4.340127   4.169850   3.955335   1.019771   2.037135
    13  H    1.342379   3.342716   2.866319   4.350643   3.065383
    14  H    4.304166   0.965158   2.267715   4.095884   3.196879
                    6          7          8          9         10
     6  C    0.000000
     7  C    2.498178   0.000000
     8  H    2.148143   2.124292   0.000000
     9  H    1.087302   3.431781   2.462572   0.000000
    10  H    1.087942   2.769287   3.057528   1.758826   0.000000
    11  H    3.323337   2.652300   2.396348   3.579186   3.618916
    12  H    2.617151   3.308437   2.417976   2.418838   2.940489
    13  H    2.386355   2.824519   3.463602   3.279818   2.576104
    14  H    4.171717   1.863904   3.321346   5.104839   4.509172
                   11         12         13         14
    11  H    0.000000
    12  H    1.623258   0.000000
    13  H    5.024274   4.845566   0.000000
    14  H    3.988485   4.981918   3.615614   0.000000
 Stoichiometry    C3H7NO2S(1-,2)
 Framework group  C1[X(C3H7NO2S)]
 Deg. of freedom    36
 Full point group                 C1      NOp   1
 Largest Abelian subgroup         C1      NOp   1
 Largest concise Abelian subgroup C1      NOp   1
                         Standard orientation:                         
 ---------------------------------------------------------------------
 Center     Atomic      Atomic             Coordinates (Angstroms)
 Number     Number       Type             X           Y           Z
 ---------------------------------------------------------------------
      1         16           0        2.155384   -0.341521   -0.128594
      2          8           0       -1.361245   -1.402525   -0.899653
      3          8           0       -1.153408   -0.905425    1.267837
      4          7           0       -1.333785    1.834100    0.010482
      5          6           0       -0.450430    0.725917   -0.377093
      6          6           0        0.914443    0.944641    0.262508
      7          6           0       -1.065585   -0.570790    0.108064
      8          1           0       -0.330867    0.654924   -1.463697
      9          1           0        1.332614    1.873559   -0.117584
     10          1           0        0.821388    1.036805    1.342538
     11          1           0       -2.225910    1.741098   -0.478040
     12          1           0       -0.928617    2.705586   -0.330521
     13          1           0        1.611086   -1.308501    0.626834
     14          1           0       -1.702689   -2.212848   -0.501757
 ---------------------------------------------------------------------
 Rotational constants (GHZ):           2.7310443           1.6236783           1.2544390
 Standard basis: Aug-CC-pVTZ (5D, 7F)
 There are   564 symmetry adapted cartesian basis functions of A   symmetry.
 There are   487 symmetry adapted basis functions of A   symmetry.
   487 basis functions,   735 primitive gaussians,   564 cartesian basis functions
    33 alpha electrons       32 beta electrons
       nuclear repulsion energy       381.0696282681 Hartrees.
 NAtoms=   14 NActive=   14 NUniq=   14 SFac= 1.00D+00 NAtFMM=   60 NAOKFM=F Big=F
 Integral buffers will be    131072 words long.
 Raffenetti 2 integral format.
 Two-electron integral symmetry is turned on.
 Nuclear repulsion after empirical dispersion term =      381.0627943220 Hartrees.
 ------------------------------------------------------------------------------
 Polarizable Continuum Model (PCM)
 =================================
 Model                : PCM.
 Atomic radii         : SMD-Coulomb.
 Polarization charges : Total charges.
 Charge compensation  : None.
 Solution method      : On-the-fly selection.
 Cavity type          : VdW (van der Waals Surface) (Alpha=1.000).
 Cavity algorithm     : GePol (No added spheres)
                        Default sphere list used, NSphG=   14.
                        Lebedev-Laikov grids with approx.  5.0 points / Ang**2.
                        Smoothing algorithm: York/Karplus (Gamma=1.0000).
                        Polarization charges: spherical gaussians, with
                                              point-specific exponents (IZeta= 3).
                        Self-potential: point-specific (ISelfS= 7).
                        Self-field    : sphere-specific E.n sum rule (ISelfD= 2).
 1st derivatives      : Analytical E(r).r(x)/FMM algorithm (CHGder, D1EAlg=3).
                        Cavity 1st derivative terms included.
 Solvent              : DiethylEther, Eps=   4.240000 Eps(inf)=   1.829527
 ------------------------------------------------------------------------------
 Spheres list:
 ISph  on   Nord     Re0    Alpha      Xe            Ye            Ze
    1   S      1    2.4900  1.000      2.155384     -0.341521     -0.128594
    2   O      2    2.2940  1.000     -1.361245     -1.402525     -0.899653
    3   O      3    2.2940  1.000     -1.153408     -0.905425      1.267837
    4   N      4    1.8900  1.000     -1.333785      1.834100      0.010482
    5   C      5    1.8500  1.000     -0.450430      0.725917     -0.377093
    6   C      6    1.8500  1.000      0.914443      0.944641      0.262508
    7   C      7    1.8500  1.000     -1.065585     -0.570790      0.108064
    8   H      8    1.2000  1.000     -0.330867      0.654924     -1.463697
    9   H      9    1.2000  1.000      1.332614      1.873559     -0.117584
   10   H     10    1.2000  1.000      0.821388      1.036805      1.342538
   11   H     11    1.2000  1.000     -2.225910      1.741098     -0.478040
   12   H     12    1.2000  1.000     -0.928617      2.705586     -0.330521
   13   H     13    1.2000  1.000      1.611086     -1.308501      0.626834
   14   H     14    1.2000  1.000     -1.702689     -2.212848     -0.501757
 ------------------------------------------------------------------------------
 ------------------------------------------------------------------------------
 Atomic radii for non-electrostatic terms: SMD-CDS.
 ------------------------------------------------------------------------------
 Nuclear repulsion after PCM non-electrostatic terms =      381.0584842478 Hartrees.
 One-electron integrals computed using PRISM.
 NBasis=   487 RedAO= T EigKep=  5.77D-06  NBF=   487
 NBsUse=   487 1.00D-06 EigRej= -1.00D+00 NBFU=   487
 Initial guess from the checkpoint file:  "cys_opt.chk"
 B after Tr=     0.000000    0.000000   -0.000000
         Rot=    0.999825   -0.014996   -0.008897   -0.006748 Ang=  -2.14 deg.
 Initial guess <Sx>= 0.0000 <Sy>= 0.0000 <Sz>= 0.5000 <S**2>= 0.7506 S= 0.5003
 ExpMin= 2.53D-02 ExpMax= 3.74D+05 ExpMxC= 1.18D+03 IAcc=3 IRadAn=         5 AccDes= 0.00D+00
 Harris functional with IExCor= 4639 and IRadAn=       5 diagonalized for initial guess.
 HarFok:  IExCor= 4639 AccDes= 0.00D+00 IRadAn=         5 IDoV= 1 UseB2=F ITyADJ=14
 ICtDFT=  3500011 ScaDFX=  1.000000  1.000000  1.000000  1.000000
 FoFCou: FMM=F IPFlag=           0 FMFlag=      100000 FMFlg1=           0
         NFxFlg=           0 DoJE=T BraDBF=F KetDBF=T FulRan=T
         wScrn=  0.000000 ICntrl=       500 IOpCl=  0 I1Cent=   200000004 NGrid=           0
         NMat0=    1 NMatS0=      1 NMatT0=    0 NMatD0=    1 NMtDS0=    0 NMtDT0=    0
 Petite list used in FoFCou.
 Requested convergence on RMS density matrix=1.00D-08 within 128 cycles.
 Requested convergence on MAX density matrix=1.00D-06.
 Requested convergence on             energy=1.00D-06.
 No special actions if energy rises.
 Inv3:  Mode=1 IEnd=     5038848.
 Iteration    1 A*A^-1 deviation from unit magnitude is 3.33D-15 for    512.
 Iteration    1 A*A^-1 deviation from orthogonality  is 2.40D-15 for    213     71.
 Iteration    1 A^-1*A deviation from unit magnitude is 3.11D-15 for    512.
 Iteration    1 A^-1*A deviation from orthogonality  is 6.93D-14 for    263    213.
 Restarting incremental Fock formation.
 Error on total polarization charges =  0.16388
 SCF Done:  E(UwB97XD) =  -722.000674039     A.U. after   33 cycles
            NFock= 33  Conv=0.32D-08     -V/T= 2.0041
 <Sx>= 0.0000 <Sy>= 0.0000 <Sz>= 0.5000 <S**2>= 0.7505 S= 0.5003
 <L.S>=  0.00000000000    
 SMD-CDS (non-electrostatic) energy       (kcal/mol) =      -2.70
 (included in total energy above)
 Annihilation of the first spin contaminant:
 S**2 before annihilation     0.7505,   after     0.7500
 D1PCM: PCM CHGder 1st derivatives, ID1Alg=3 FixD1E=F DoIter=F DoCFld=F I1PDM=0.
 Calling FoFJK, ICntrl=      2127 FMM=F ISym2X=0 I1Cent= 0 IOpClX= 1 NMat=1 NMatS=1 NMatT=0.
 ***** Axes restored to original set *****
 -------------------------------------------------------------------
 Center     Atomic                   Forces (Hartrees/Bohr)
 Number     Number              X              Y              Z
 -------------------------------------------------------------------
      1       16          -0.000427571   -0.001234169   -0.000144566
      2        8          -0.004084842    0.000707171    0.002463311
      3        8          -0.001732135    0.000023653   -0.000647248
      4        7           0.002785724    0.000807568   -0.000812874
      5        6          -0.003517645   -0.004402812    0.002194867
      6        6          -0.000200363   -0.000320354   -0.002246596
      7        6           0.007660337    0.002158248   -0.002446129
      8        1           0.000252239    0.001047734   -0.000779581
      9        1           0.001211517   -0.000014705    0.000236486
     10        1          -0.000318645    0.000434144    0.000497175
     11        1          -0.000810371    0.000097550    0.000306915
     12        1           0.000062524   -0.000792626    0.001207687
     13        1           0.000124322    0.000520253   -0.000115911
     14        1          -0.001005093    0.000968346    0.000286463
 -------------------------------------------------------------------
 Cartesian Forces:  Max     0.007660337 RMS     0.001936940

 GradGradGradGradGradGradGradGradGradGradGradGradGradGradGradGradGradGrad
 Berny optimization.
 Using GEDIIS/GDIIS optimizer.
 FormGI is forming the generalized inverse of G from B-inverse, IUseBI=4.
 Internal  Forces:  Max     0.004902459 RMS     0.001165413
 Search for a local minimum.
 Step number   2 out of a maximum of   69
 All quantities printed in internal units (Hartrees-Bohrs-Radians)
 Mixed Optimization -- RFO/linear search
 Update second derivatives using D2CorX and points    1    2
 DE= -3.86D-03 DEPred=-4.49D-03 R= 8.59D-01
 TightC=F SS=  1.41D+00  RLast= 3.63D-01 DXNew= 5.0454D-01 1.0894D+00
 Trust test= 8.59D-01 RLast= 3.63D-01 DXMaxT set to 5.05D-01
 ITU=  1  0
 Use linear search instead of GDIIS.
     Eigenvalues ---    0.00233   0.00370   0.00519   0.00835   0.01194
     Eigenvalues ---    0.02260   0.04501   0.04665   0.05023   0.05097
     Eigenvalues ---    0.05720   0.06332   0.11660   0.13843   0.15700
     Eigenvalues ---    0.16000   0.16000   0.16122   0.17078   0.17806
     Eigenvalues ---    0.21881   0.24534   0.24626   0.25245   0.26343
     Eigenvalues ---    0.29515   0.30769   0.33971   0.34082   0.34284
     Eigenvalues ---    0.36506   0.44377   0.44440   0.51116   0.55689
     Eigenvalues ---    0.92285
 RFO step:  Lambda=-1.85963327D-03 EMin= 2.33010152D-03
 Quartic linear search produced a step of -0.02710.
 Iteration  1 RMS(Cart)=  0.08203257 RMS(Int)=  0.00633789
 Iteration  2 RMS(Cart)=  0.00826073 RMS(Int)=  0.00117728
 Iteration  3 RMS(Cart)=  0.00011065 RMS(Int)=  0.00117537
 Iteration  4 RMS(Cart)=  0.00000013 RMS(Int)=  0.00117537
 Variable       Old X    -DE/DX   Delta X   Delta X   Delta X     New X
                                 (Linear)    (Quad)   (Total)
    R1        3.45727  -0.00078  -0.00042   0.00056   0.00014   3.45741
    R2        2.53673   0.00024  -0.00007   0.00150   0.00143   2.53816
    R3        2.53159   0.00490   0.00089   0.00106   0.00195   2.53354
    R4        1.82388   0.00111   0.00081  -0.00493  -0.00412   1.81976
    R5        2.28709   0.00094   0.00078  -0.00577  -0.00499   2.28210
[...]
 ! A20   A(3,7,5)              120.9346         -DE/DX =    0.0                 !
 ! D1    D(13,1,6,5)           -43.4136         -DE/DX =    0.0                 !
 ! D2    D(13,1,6,9)          -164.3436         -DE/DX =    0.0                 !
 ! D3    D(13,1,6,10)           78.9496         -DE/DX =    0.0                 !
 ! D4    D(14,2,7,3)            10.3532         -DE/DX =    0.0                 !
 ! D5    D(14,2,7,5)           148.8149         -DE/DX =    0.0                 !
 ! D6    D(11,4,5,6)          -163.1067         -DE/DX =    0.0                 !
 ! D7    D(11,4,5,7)           -40.1712         -DE/DX =    0.0                 !
 ! D8    D(11,4,5,8)            78.9239         -DE/DX =    0.0                 !
 ! D9    D(12,4,5,6)            80.1965         -DE/DX =    0.0                 !
 ! D10   D(12,4,5,7)          -156.8681         -DE/DX =    0.0                 !
 ! D11   D(12,4,5,8)           -37.773          -DE/DX =    0.0                 !
 ! D12   D(4,5,6,1)           -168.7614         -DE/DX =    0.0                 !
 ! D13   D(4,5,6,9)            -49.6223         -DE/DX =    0.0                 !
 ! D14   D(4,5,6,10)            68.7492         -DE/DX =    0.0                 !
 ! D15   D(7,5,6,1)             69.7066         -DE/DX =    0.0                 !
 ! D16   D(7,5,6,9)           -171.1542         -DE/DX =    0.0                 !
 ! D17   D(7,5,6,10)           -52.7827         -DE/DX =    0.0                 !
 ! D18   D(8,5,6,1)            -48.7927         -DE/DX =    0.0                 !
 ! D19   D(8,5,6,9)             70.3464         -DE/DX =    0.0                 !
 ! D20   D(8,5,6,10)          -171.2821         -DE/DX =    0.0                 !
 ! D21   D(4,5,7,2)             53.1052         -DE/DX =    0.0                 !
 ! D22   D(4,5,7,3)           -171.3889         -DE/DX =    0.0                 !
 ! D23   D(6,5,7,2)            173.5742         -DE/DX =    0.0                 !
 ! D24   D(6,5,7,3)            -50.9199         -DE/DX =    0.0                 !
 ! D25   D(8,5,7,2)            -67.9141         -DE/DX =    0.0                 !
 ! D26   D(8,5,7,3)             67.5918         -DE/DX =    0.0                 !
 --------------------------------------------------------------------------------
 GradGradGradGradGradGradGradGradGradGradGradGradGradGradGradGradGradGrad


 ----------------------------------------------------------------------

 Electric dipole moment (input orientation):
 (Debye = 10**-18 statcoulomb cm , SI units = C m)
                  (au)            (Debye)         (10**-30 SI)
   Tot        0.169628D+01      0.431150D+01      0.143816D+02
   x          0.602010D+00      0.153016D+01      0.510406D+01
   y         -0.122979D+01     -0.312580D+01     -0.104266D+02
   z          0.100128D+01      0.254500D+01      0.848920D+01

 Dipole polarizability, Alpha (input orientation).
 (esu units = cm**3 , SI units = C**2 m**2 J**-1)
 Alpha(0;0):
               (au)            (10**-24 esu)      (10**-40 SI)
   iso        0.129951D+03      0.192567D+02      0.214260D+02
   aniso      0.149922D+02      0.222161D+01      0.247188D+01
   xx         0.133800D+03      0.198272D+02      0.220607D+02
   yx         0.602291D+01      0.892504D+00      0.993044D+00
   yy         0.127848D+03      0.189451D+02      0.210793D+02
   zx        -0.983196D+00     -0.145695D+00     -0.162107D+00
   zy         0.515114D+01      0.763320D+00      0.849308D+00
   zz         0.128204D+03      0.189979D+02      0.211380D+02

 ----------------------------------------------------------------------

 Dipole orientation:
    16          4.85526427          1.44126249          0.05960179
     8         -3.78064735          0.49005072         -1.19319103
     8          0.03841034          1.22470598         -3.11364106
     7         -1.51326128         -1.94888410          2.81193039
     6         -0.05806281         -0.13294277          1.29852278
     6          2.70926114         -0.94580887          1.33612471
     6         -1.11919347         -0.00398360         -1.36834401
     1         -0.17099992          1.78864203          2.12371460
     1          3.30632609         -1.29913895          3.27594317
     1          2.91845712         -2.69815735          0.27426166
     1         -3.36670275         -1.75289405          2.38316231
     1         -1.32416990         -1.54419817          4.67259578
     1          3.23388222          1.90387113         -1.90328355
     1         -4.12134843          1.45031272         -2.69691462

 Electric dipole moment (dipole orientation):
 (Debye = 10**-18 statcoulomb cm , SI units = C m)
                  (au)            (Debye)         (10**-30 SI)
   Tot        0.169628D+01      0.431150D+01      0.143816D+02
   x          0.000000D+00      0.000000D+00      0.000000D+00
   y          0.000000D+00      0.000000D+00      0.000000D+00
   z          0.169628D+01      0.431150D+01      0.143816D+02

 Dipole polarizability, Alpha (dipole orientation).
 (esu units = cm**3 , SI units = C**2 m**2 J**-1)
 Alpha(0;0):
               (au)            (10**-24 esu)      (10**-40 SI)
   iso        0.129951D+03      0.192567D+02      0.214260D+02
   aniso      0.149922D+02      0.222161D+01      0.247188D+01
   xx         0.134785D+03      0.199731D+02      0.222231D+02
   yx         0.344603D+01      0.510649D+00      0.568174D+00
   yy         0.134266D+03      0.198961D+02      0.221374D+02
   zx        -0.397571D+00     -0.589139D-01     -0.655506D-01
   zy         0.200194D+00      0.296656D-01      0.330075D-01
   zz         0.120802D+03      0.179010D+02      0.199175D+02

 ----------------------------------------------------------------------
 Unable to Open any file for archive entry.
 1\1\GINC-CSKY140\Freq\UwB97XD\Aug-CC-pVTZ\C3H7N1O2S1(1-,2)\PH1221037\1
 7-Mar-2026\0\\#N Geom=AllCheck Guess=TCheck SCRF=Check GenChk UwB97XD/
 Aug-CC-pVTZ Freq\\Cysteine Geometry Optimisation\\-1,2\S,2.500392019,0
 .9034386727,-0.340289138\O,-2.0243071548,0.3076864121,0.5253250602\O,-
 0.4611856555,1.6317181066,-0.5099436663\N,-0.3761234008,-1.8988003316,
 0.4148551952\C,0.204195497,-0.5502468623,0.3655121012\C,1.4900806999,-
 0.6157173558,-0.4543167467\C,-0.8026673733,0.4277290886,-0.2187580853\
 H,0.4686640917,-0.1957296979,1.3816964819\H,2.1150666113,-1.4339835886
 ,-0.096075424\H,1.2425572559,-0.8112379303,-1.497579126\H,-1.342984981
 4,-1.8235582036,0.7042018309\H,0.1001061423,-2.4530829787,1.1158039386
 \H,1.381316547,1.6815687246,-0.4714386053\H,-2.3905102983,1.1956159443
 ,0.4880061836\\Version=ES64L-G16RevC.01\State=2-A\HF=-722.019558\S2=0.
 754148\S2-1=0.\S2A=0.75001\RMSD=1.660e-09\RMSF=5.696e-05\ZeroPoint=0.1
 047107\Thermal=0.1136148\ETot=-721.9059432\HTot=-721.9049615\GTot=-721
 .950054\Dipole=0.6020102,-1.2297863,1.0012799\DipoleDeriv=-0.6332791,-
 0.0343618,0.073645,0.1120026,-0.3651055,0.0429995,0.01593,0.0521655,-0
 .2787752,-1.5020208,-0.11171,0.2478909,-0.0172258,-0.4241943,0.0855005
 ,0.6609865,0.1016171,-0.4925631,-1.3613857,-0.0780961,0.2825781,-0.472
 9334,-1.6122852,0.6745658,0.2010095,0.1745938,-0.5242639,-0.5606152,-0
 .2450698,0.1096645,-0.2245906,-0.845378,-0.0270196,0.0775408,-0.089332
 8,-0.3952818,0.4706243,0.3625939,0.1935736,0.1095927,0.4317304,0.00104
 33,-0.0350079,-0.0976687,0.6662837,0.0965421,0.0592884,0.0504554,0.300
 4491,0.4486944,-0.0393096,0.0665068,0.0571854,0.09845,1.0795556,0.2710
 924,-0.6955725,0.4068886,1.0744395,-0.5797649,-0.8301412,-0.4259341,-0
 .1977886,-0.1158128,-0.0464153,-0.0883416,-0.0632861,-0.1754105,-0.176
 4676,-0.1902707,-0.0501518,-0.4445459,-0.0337487,0.0633654,-0.0098428,
 0.0679592,-0.1187722,0.0378728,-0.0343105,0.0729247,0.0622978,0.024413
 ,-0.1212333,-0.1025804,-0.0814562,-0.0287805,-0.0546577,0.0072836,-0.0
 794235,-0.1082054,0.1280261,-0.0667932,0.0783119,0.0296255,0.2207566,0
 .0175652,0.1423912,0.0620768,0.1695177,0.1476479,0.0355559,-0.0908362,
 -0.020215,0.173193,0.0711857,-0.0987044,0.2036157,0.0974941,0.92484,-0
 .056776,-0.0568253,-0.249361,0.0723346,-0.0085569,0.0158223,-0.0386689
 ,0.085577,0.3352133,-0.0314404,0.0078795,0.1025506,0.1487778,-0.044956
 5,0.0009641,0.0570006,0.2618035\Polar=133.8002779,6.0229144,127.847856
 4,-0.9831955,5.151136,128.2043834\Quadrupole=-4.3479176,0.8454158,3.50
 25018,-3.3809832,-0.5526699,-0.9652958\PG=C01 [X(C3H7N1O2S1)]\NImag=0\
 \0.25955061,-0.02432445,0.21696147,0.02694097,0.00123614,0.03577784,-0
 .00258190,0.00105996,-0.00054039,0.27338256,-0.00283726,0.00144179,-0.
 00067917,-0.15691414,0.54995781,0.00296692,-0.00092811,0.00015028,-0.0
 7962712,-0.06230881,0.07488157,-0.02929037,0.01140924,-0.00229742,-0.0
 2980780,-0.05469501,0.02427377,0.12223208,-0.00504815,0.00697270,-0.00
 156146,-0.04066921,-0.01118358,0.02713965,0.10223517,0.46385332,-0.000
 36521,-0.00195410,0.00181980,0.02985737,0.03504135,-0.00665411,-0.0462
 4674,-0.11958149,0.06822687,-0.00603085,-0.00475397,0.00386969,-0.0010
 5394,0.00224972,-0.00057473,-0.00187662,0.00687623,-0.00333031,0.66754
 920,-0.00057983,0.00124019,0.00059100,0.00177319,-0.00198701,-0.000089
 28,0.00405747,-0.00478535,0.00186959,-0.05507929,0.44368725,0.00228538
 ,0.00135658,0.00026113,-0.00056342,-0.00058836,0.00049815,-0.00294149,
 0.00461546,-0.00010584,0.01994273,-0.17966071,0.33912287,-0.00995996,-
 0.00615289,0.00430191,-0.03352612,0.01716641,-0.00807075,0.01288470,-0
 .01143856,-0.00020729,-0.11408612,-0.03490586,0.00155699,0.48874575,-0
 .02436739,-0.01122837,0.01080613,0.00606152,0.00210458,0.00363395,0.01
 522670,-0.03378809,0.02562867,-0.04635774,-0.18405898,0.02699580,-0.00
 063913,0.48112420,-0.00381419,-0.00113569,0.00089302,0.02662166,-0.013
 74919,-0.00090732,0.00074574,0.00265390,-0.00186843,-0.01679240,-0.021
 66078,-0.06551142,-0.01323874,0.01963465,0.49721673,-0.07569003,-0.051
 48516,-0.00781495,-0.00206583,0.00325822,0.00030383,0.00075818,-0.0029
 3917,0.00067363,-0.02026877,-0.00876791,0.00690042,-0.14633717,0.01463
 029,0.05292600,0.44856318,-0.02640660,-0.09626987,-0.00916007,0.005443
 22,-0.00414746,0.00122287,-0.00540298,-0.00111187,0.00076211,-0.032269
 82,-0.00711935,0.01488117,0.02415676,-0.06878571,-0.00590534,-0.087097
 68,0.44294942,-0.00769602,-0.01019336,-0.03596788,-0.00414795,0.002405
 77,0.00130251,0.00028661,0.00133702,0.00011700,0.00363654,0.00393678,0
 .00088549,0.05089049,-0.00165337,-0.11572081,0.05007810,-0.01263107,0.
 53474792,0.00017887,0.00044015,-0.00048241,-0.11572225,0.03599112,0.05
 473692,-0.10233687,-0.06570943,0.02528736,0.01362419,-0.01128600,0.008
 94800,-0.11851377,0.03750289,-0.04064240,-0.02448508,0.01418358,-0.005
 83415,0.39047431,0.01070526,-0.00767622,0.00145729,0.00337285,-0.08892
 113,0.00624404,-0.07539176,-0.41516823,0.05756396,0.01622119,-0.029009
 35,0.01638868,0.04084100,-0.10199666,0.03782579,0.00433245,0.00686932,
 -0.00545226,-0.01254397,0.63692591,-0.00544906,0.00263514,0.00001335,0
 .02898534,-0.00170219,-0.06299599,0.02660661,0.07508443,-0.06076539,0.
 00290914,0.00612068,-0.00360275,-0.00766719,0.00808195,-0.06979397,0.0
 1039570,-0.01579637,0.00764629,-0.04732524,-0.08914530,0.21953579,0.00
 189012,0.00067092,-0.00051717,0.00226697,-0.00032965,0.00187826,0.0017
 7352,0.00127736,0.00292219,-0.00376229,-0.01232214,-0.01246857,-0.0572
 4196,-0.01452402,-0.04594338,0.00261208,0.00609673,0.02787863,-0.01017
 984,-0.00332622,-0.02536781,0.06562945,-0.00094258,0.00083956,0.001010
 89,-0.00285705,0.00033677,-0.00023447,-0.00029613,0.00223468,-0.002705
 29,-0.01532196,-0.02594903,-0.02718072,-0.00824877,-0.06016089,-0.0523
 8754,-0.00105528,-0.00029926,-0.00333166,0.00816442,0.00289012,0.01888
 527,0.02093120,0.07833762,-0.00071080,-0.00028602,0.00218281,-0.001301
 05,0.00066055,0.00597472,0.00350610,0.00533628,0.00356644,0.00022290,-
 0.00043738,0.00596917,-0.03695184,-0.06133784,-0.22664891,-0.00306626,
 -0.00506002,-0.01946424,-0.01166566,-0.00389232,-0.02516527,0.04851110
 ,0.06685147,0.25366715,0.00797379,-0.01470171,0.00406212,-0.00198170,0
 .00172029,-0.00009127,0.00052059,0.00059959,-0.00032379,0.00220593,0.0
 0046951,-0.00069891,-0.01776643,0.02056543,-0.01133880,-0.13176668,0.1
 1607717,-0.05158145,-0.00122112,-0.00276457,0.00511672,0.00083305,-0.0
 0023500,0.00007054,0.14837093,0.00893994,-0.01869814,0.00500591,0.0002
 2462,0.00005492,0.00001214,0.00035345,0.00073623,-0.00003265,-0.001811
 66,0.00158038,-0.00058455,0.00039351,-0.00209142,0.00192983,0.12070790
 ,-0.19373296,0.06967021,-0.00061737,0.00013569,-0.00058837,0.00003417,
 -0.00001935,-0.00036160,-0.12262173,0.21069066,0.00136890,-0.00347610,
 0.00106214,0.00120459,-0.00062103,0.00036306,-0.00039019,-0.00049625,-
 0.00006499,-0.00120178,-0.00102584,0.00073235,0.01383501,-0.01485142,0
 .00621592,-0.05297073,0.06926493,-0.07953896,0.00108221,0.00235916,-0.
 00216360,-0.00090345,-0.00012258,0.00068253,0.05534508,-0.07353936,0.0
 8160044,-0.00608407,-0.00881785,-0.01123929,0.00019294,0.00006729,-0.0
 0074481,0.00041062,-0.00035951,-0.00038729,0.00121269,0.00105100,-0.00
 059113,0.00489914,0.00427136,0.02802021,-0.06000495,-0.00700273,-0.063
 02632,0.00125102,0.00001192,0.00100172,-0.00406971,0.00017635,0.002721
 51,-0.00366348,-0.00278387,-0.01708446,0.06634829,-0.01172306,-0.01309
 820,-0.01815496,-0.00023321,0.00011407,0.00024384,0.00022052,0.0005656
 8,0.00031465,0.00032762,0.00047973,0.00093785,-0.00046410,-0.00009489,
 -0.00416313,-0.00554393,-0.05084735,-0.04700280,-0.00002043,-0.0001600
 1,-0.00041914,0.00033691,0.00020445,-0.00065603,0.00515692,0.00506472,
 0.02347470,0.01262651,0.05671982,0.00114668,0.00132514,0.00486143,-0.0
 0007520,0.00023734,0.00038389,0.00025156,-0.00093394,-0.00037368,-0.00
 049381,0.00058737,0.00153271,-0.00300301,-0.00474209,-0.01834770,-0.05
 891480,-0.04122893,-0.29700910,-0.00139366,0.00141368,0.00052262,0.003
 41457,-0.00017434,-0.00207978,-0.00158554,-0.00172106,-0.00905684,0.06
 089113,0.04549463,0.31945869,-0.00018036,0.00010156,0.00041384,-0.0019
 6262,0.00238180,-0.00067163,-0.00075245,-0.00044017,0.00011098,-0.3939
 1417,0.02603767,0.09432524,-0.01420583,-0.00018144,0.00710960,-0.00030
 247,-0.00244950,-0.00111085,0.00155319,0.00149080,-0.00017934,0.000001
 99,0.00060246,-0.00030372,0.00029034,-0.00009850,-0.00012964,0.0000781
 7,0.00001781,0.00001522,0.42541826,-0.00128417,-0.00095855,0.00087188,
 0.00127660,0.00039054,-0.00084546,0.00123940,0.00160897,-0.00084420,0.
 04808336,-0.05168184,0.00554057,-0.03668229,-0.00046752,0.01053874,-0.
 00106915,-0.00504539,-0.00049379,-0.00374579,-0.00120813,0.00334381,-0
 .00019761,-0.00026980,-0.00034969,0.00004569,0.00002715,-0.00028656,0.
 00003112,0.00003258,0.00007070,-0.02841087,0.05888099,0.00074658,0.000
 82594,-0.00010850,-0.00072837,-0.00009182,0.00033649,-0.00059543,-0.00
 081575,-0.00024386,0.13719159,0.00901947,-0.05956748,-0.00006435,-0.00
 510813,-0.00292938,0.00143442,0.00200409,0.00010917,0.00121745,0.00139
 164,-0.00003324,-0.00048768,-0.00032691,-0.00004577,-0.00025469,0.0000
 0948,0.00010033,-0.00029574,-0.00012762,0.00013196,-0.10775830,-0.0081
 3523,0.05790605,-0.00022960,0.00016275,-0.00013667,-0.00015097,0.00076
 312,0.00016030,0.00121136,-0.00018315,0.00052511,-0.14178172,0.0897760
 6,-0.11682082,0.00782020,-0.01124842,0.01183155,0.00160319,-0.00083425
 ,0.00017251,-0.00297441,-0.00151628,-0.00059236,0.00029565,-0.00064713
 ,0.00006076,-0.00061208,0.00050474,-0.00013911,-0.00002857,0.00002017,
 -0.00012056,-0.01588223,0.02075837,-0.03047640,0.15023453,-0.00010407,
 0.00008506,-0.00028822,0.00036789,0.00022764,-0.00010802,0.00148806,-0
 .00211644,0.00046255,0.08106908,-0.14269280,0.13727384,0.01833967,-0.0
 2119866,0.02588036,0.00022511,0.00001617,-0.00026204,-0.00567734,-0.00
 424250,0.00021341,0.00101566,0.00202426,-0.00100900,-0.00038493,0.0002
 5985,0.00025520,0.00010813,0.00011759,-0.00015155,0.00078603,-0.002032
 52,0.00163910,-0.09754285,0.16952537,0.00048978,-0.00012722,0.00005854
 ,-0.00016077,-0.00049970,0.00051164,0.00052426,0.00145984,0.00110077,-
 0.14425521,0.18039709,-0.22035272,-0.00125685,-0.00921925,-0.00232612,
 -0.00020817,0.00058633,-0.00046858,0.00009130,0.00013583,-0.00147282,0
 .00076478,-0.00013492,0.00158192,0.00072335,0.00010155,-0.00016590,-0.
 00012352,0.00005884,0.00010873,0.00821451,-0.00859084,0.00464234,0.135
 62485,-0.16398206,0.21678118,-0.14065080,0.09687594,-0.01669449,0.0049
 6303,0.00504553,-0.00428807,0.01574462,0.01898415,-0.00289096,-0.00216
 522,0.00128927,-0.00023754,0.00167990,-0.00039583,-0.00041685,0.008295
 57,-0.00599177,0.00125912,-0.00608936,-0.02295381,0.00827353,-0.000241
 03,-0.00005038,-0.00114209,-0.00262726,-0.00318881,-0.00028779,-0.0005
 4177,-0.00069930,-0.00008269,0.00002243,-0.00072001,0.00037718,0.00015
 334,0.00040516,-0.00040441,0.12316017,0.07790492,-0.07971285,0.0088617
 2,-0.00065909,-0.00063573,0.00037567,0.00122847,-0.00739607,0.00131273
 ,0.00083269,0.00023855,-0.00022309,0.00037516,0.00059144,0.00098088,0.
 01514828,-0.02275188,0.00362921,-0.00356211,0.00123462,-0.00132936,0.0
 0006527,0.00003669,0.00043545,-0.00386092,-0.00406669,-0.00098890,0.00
 066606,0.00087486,-0.00018169,-0.00000308,0.00031122,-0.00013684,0.000
 10058,-0.00000663,-0.00006898,-0.08841222,0.11127730,-0.01746179,0.010
 60762,-0.01093071,0.00068190,0.00106629,-0.00025387,-0.00049161,0.0019
 5945,-0.00480206,-0.00050022,-0.00022344,-0.00020684,0.00006441,0.0004
 5399,0.00045578,-0.00003443,0.00121161,0.00316675,0.00072121,-0.002362
 65,0.00003395,0.00007198,-0.00002382,-0.00028646,0.00043690,0.00010274
 ,0.00018309,0.00088122,-0.00002139,-0.00019655,0.00000628,-0.00013940,
 0.00004298,-0.00000610,0.00002386,0.00002240,0.01586354,-0.01268273,0.
 01268817,0.00110454,-0.00048451,0.00013427,-0.09195237,0.14613254,0.00
 974837,0.00852844,-0.00318516,-0.00562506,0.00034768,-0.00151316,0.000
 36312,-0.00439234,-0.00054421,0.00493200,-0.00091122,0.00149788,-0.000
 80527,-0.02555888,0.04152114,0.00329223,0.00019199,-0.00022015,0.00004
 852,-0.00055588,-0.00003636,0.00027136,-0.00000032,-0.00002241,-0.0000
 4990,-0.00016424,0.00067535,-0.00030627,0.00034132,-0.00009560,-0.0000
 2391,-0.00170362,0.00017599,-0.00023330,0.11472492,0.00006744,0.000101
 42,0.00000291,0.18175285,-0.44775321,0.02564199,-0.00167261,-0.0004219
 5,0.00216211,-0.00006545,0.00005760,0.00024746,-0.00274092,0.00005097,
 -0.00044248,-0.00034398,0.00027619,0.00004137,0.00688029,0.00032658,-0
 .00538399,0.00027143,-0.00020582,0.00010614,-0.00006575,0.00005895,0.0
 0005405,-0.00004578,0.00002695,0.00000474,0.00016543,0.00041229,-0.000
 14742,-0.00011370,0.00003362,-0.00011649,-0.00018794,0.00000516,0.0000
 2785,-0.18390135,0.44703125,-0.00044815,0.00011402,-0.00007324,-0.0002
 0660,0.04082896,-0.01359103,-0.00323178,0.00380285,0.00004750,-0.00062
 413,0.00057543,0.00034517,-0.00018878,0.00167695,-0.00072740,0.0002972
 4,-0.00015130,0.00019444,0.01525907,-0.02392752,-0.00175895,0.00024655
 ,-0.00012537,0.00006568,0.00011972,-0.00000427,0.00005044,-0.00002325,
 0.00002056,0.00006364,-0.00004219,-0.00068053,-0.00034108,-0.00008305,
 0.00005257,-0.00002138,0.00067151,0.00001592,0.00008337,-0.01174616,-0
 .02219826,0.01566284\\0.00005077,-0.00004071,0.00002215,0.00012129,0.0
 0002550,-0.00010589,0.00003922,0.00015223,-0.00004710,-0.00001027,0.00
 004228,-0.00000786,0.00002243,-0.00004278,0.00001884,-0.00000517,0.000
 01599,0.00002292,-0.00017496,-0.00017476,0.00007737,-0.00001905,0.0000
 0876,-0.00001003,0.00001417,0.00000620,0.00001832,0.00001214,-0.000005
 33,0.00001328,0.00000555,-0.00000465,-0.00000138,0.00000110,-0.0000084
 4,0.00001815,-0.00004587,0.00002940,0.00000162,-0.00001134,-0.00000371
 ,-0.00002038\\\@
 The archive entry for this job was punched.


 IT IS NOT EASY TO DESCRIBE
     THE SEA WITH THE MOUTH

                   -- KOKYU
 Job cpu time:       0 days 12 hours 54 minutes 20.3 seconds.
 Elapsed time:       0 days  0 hours 48 minutes 36.8 seconds.
 File lengths (MBytes):  RWF=    474 Int=      0 D2E=      0 Chk=     31 Scr=      1
 Normal termination of Gaussian 16 at Tue Mar 17 23:22:33 2026.
